version 2
run General-10-20150311-18:59:38-28963
attr D prob_cache
attr F spr
attr R lru
attr a 0.7
attr configname General
attr datetime 20150311-18:59:38
attr experiment General
attr inifile omnetpp.ini
attr iterationvars "$net=abilene, $rep=0, $a=0.7, $F=spr, $ttl=1000, $D=prob_cache, $R=lru"
attr iterationvars2 "$net=abilene, $rep=0, $a=0.7, $F=spr, $ttl=1000, $D=prob_cache, $R=lru, $repetition=0"
attr measurement "$net=abilene, $rep=0, $a=0.7, $F=spr, $ttl=1000, $D=prob_cache, $R=lru"
attr net abilene
attr network networks.${net=abilene}_network
attr processid 28963
attr rep 0
attr repetition 0
attr replication #0
attr resultdir results
attr runnumber 10
attr seedset 0
attr ttl 1000

vector 0  abilene_network.node[0].content_store  hit_node[0]  ETV
0	581658	1	1
0	581658	2	1
0	581658	3	1
0	581658	4	1
0	581658	5	1
0	581658	6	1
0	581658	7	1
0	581658	8	0
0	581658	9	0
0	581658	10	0.5
0	581658	11	0.5
0	581658	12	1
0	581658	13	0.66666666666667
0	581658	14	1
0	581658	15	0
0	581658	16	0
0	581658	17	0
0	581658	18	1
0	581658	19	0.85714285714286
0	581658	20	0
0	581658	21	0
0	581658	22	0.83333333333333
0	581658	23	0
0	581658	24	0
0	581658	25	0
0	581658	26	0.6
0	581658	27	0
0	581658	28	0.2
0	581658	29	0.6
0	581658	30	0
0	581658	31	0
0	581658	32	0.25
0	581658	33	0
0	581658	34	0.25
0	581658	35	0.5
0	581658	36	0.5
0	581658	37	0
0	581658	38	0.33333333333333
0	581658	39	0
0	581658	40	0.75
0	581658	41	0
0	581658	42	0
0	581658	43	0
0	581658	44	0
0	581658	45	0.5
0	581658	46	0
0	581658	47	0
0	581658	48	0
0	581658	49	0
0	581658	50	0
0	581658	51	0
0	581658	52	-nan
0	581658	53	0.66666666666667
0	581658	54	0.33333333333333
0	581658	55	0
0	581658	56	0
0	581658	57	0
0	581658	58	0.5
0	581658	59	0.8
0	581658	60	0
0	581658	61	0.4
0	581658	62	0
0	581658	63	0.6
0	581658	64	0.33333333333333
0	581658	65	0
0	581658	66	1
0	581658	67	0
0	581658	68	0
0	581658	69	-nan
0	581658	70	0
0	581658	71	0
0	581658	72	-nan
0	581658	73	0
0	581658	74	-nan
0	581658	75	0
0	581658	76	0
0	581658	77	0
0	581658	78	0
0	581658	79	0.66666666666667
0	581658	80	0
0	581658	81	0
0	581658	82	0
0	581658	83	-nan
0	581658	84	-nan
0	581658	85	0
0	581658	86	0
0	581658	87	0
0	581658	88	0
0	581658	89	-nan
0	581658	90	1
0	581658	91	0
0	581658	92	0
0	581658	93	0.5
0	581658	94	-nan
0	581658	95	0
0	581658	96	0.25
0	581658	97	0
0	581658	98	0
0	581658	99	0
0	581658	100	-nan
0	581658	101	0
0	581658	102	-nan
0	581658	103	0
0	581658	104	1
0	581658	105	0.5
0	581658	106	0
0	581658	107	0.5
0	581658	108	0
0	581658	109	-nan
0	581658	110	-nan
0	581658	111	0
0	581658	112	-nan
0	581658	113	1
0	581658	114	-nan
0	581658	115	0
0	581658	116	-nan
0	581658	117	0
0	581658	118	0
0	581658	119	-nan
0	581658	120	0
0	581658	121	-nan
0	581658	122	-nan
0	581658	123	0
0	581658	124	0
0	581658	125	0
0	581658	126	0
0	581658	127	0
0	581658	128	0
0	581658	129	0
0	581658	130	0
0	581658	131	-nan
0	581658	132	0
0	581658	133	0
0	581658	134	0
0	581658	135	-nan
0	581658	136	-nan
0	581658	137	0.66666666666667
0	581658	138	-nan
0	581658	139	-nan
0	581658	140	0
0	581658	141	0
0	581658	142	0.5
0	581658	143	-nan
0	581658	144	-nan
0	581658	145	-nan
0	581658	146	-nan
0	581658	147	0
0	581658	148	-nan
0	581658	149	-nan
0	581658	150	-nan
0	581658	151	0
0	581658	152	1
0	581658	153	-nan
0	581658	154	-nan
0	581658	155	-nan
0	581658	156	0
0	581658	157	-nan
0	581658	158	0
0	581658	159	-nan
0	581658	160	-nan
0	581658	161	0
0	581658	162	-nan
0	581658	163	-nan
0	581658	164	0
0	581658	165	0
0	581658	166	0.5
0	581658	167	0
0	581658	168	0
0	581658	169	0
0	581658	170	0
0	581658	171	0
0	581658	172	0
0	581658	173	0
0	581658	174	0
0	581658	175	-nan
0	581658	176	-nan
0	581658	177	0
0	581658	178	-nan
0	581658	179	0
0	581658	180	-nan
0	581658	181	0
0	581658	182	-nan
0	581658	183	-nan
0	581658	184	0
0	581658	185	0
0	581658	186	0
0	581658	187	-nan
0	581658	188	-nan
0	581658	189	0
0	581658	190	0.66666666666667
0	581658	191	0.33333333333333
0	581658	192	0
0	581658	193	0
0	581658	194	0
0	581658	195	0
0	581658	196	0
0	581658	197	0
0	581658	198	0
0	581658	199	-nan
0	581658	200	-nan
0	581658	201	0
0	581658	202	0
0	581658	203	-nan
0	581658	204	0
0	581658	205	0
0	581658	206	0
0	581658	207	-nan
0	581658	208	0
0	581658	209	-nan
0	581658	210	0
0	581658	211	-nan
0	581658	212	0
0	581658	213	-nan
0	581658	214	0
0	581658	215	0
0	581658	216	0
0	581658	217	-nan
0	581658	218	0
0	581658	219	-nan
0	581658	220	0
0	581658	221	0
0	581658	222	0
0	581658	223	1
0	581658	224	0
0	581658	225	0
0	581658	226	-nan
0	581658	227	-nan
0	581658	228	-nan
0	581658	229	-nan
0	581658	230	0.33333333333333
0	581658	231	0
0	581658	232	-nan
0	581658	233	0
0	581658	234	-nan
0	581658	235	-nan
0	581658	236	-nan
0	581658	237	0
0	581658	238	-nan
0	581658	239	1
0	581658	240	0
0	581658	241	-nan
0	581658	242	0
0	581658	243	-nan
0	581658	244	-nan
0	581658	245	0.5
0	581658	246	-nan
0	581658	247	0
0	581658	248	0
0	581658	249	-nan
0	581658	250	0
0	581658	251	0
0	581658	252	-nan
0	581658	253	-nan
0	581658	254	-nan
0	581658	255	-nan
0	581658	256	0
0	581658	257	0
0	581658	258	-nan
0	581658	259	0
0	581658	260	0
0	581658	261	0
0	581658	262	-nan
0	581658	263	-nan
0	581658	264	-nan
0	581658	265	-nan
0	581658	266	0
0	581658	267	0
0	581658	268	0
0	581658	269	0
0	581658	270	-nan
0	581658	271	0
0	581658	272	0
0	581658	273	-nan
0	581658	274	-nan
0	581658	275	-nan
0	581658	276	0
0	581658	277	-nan
0	581658	278	-nan
0	581658	279	0
0	581658	280	-nan
0	581658	281	0
0	581658	282	0
0	581658	283	-nan
0	581658	284	-nan
0	581658	285	-nan
0	581658	286	0
0	581658	287	-nan
0	581658	288	0
0	581658	289	0
0	581658	290	0
0	581658	291	0
0	581658	292	-nan
0	581658	293	-nan
0	581658	294	-nan
0	581658	295	-nan
0	581658	296	0
0	581658	297	-nan
0	581658	298	-nan
0	581658	299	-nan
0	581658	300	0
0	581658	301	-nan
0	581658	302	-nan
0	581658	303	0.5
0	581658	304	0
0	581658	305	-nan
0	581658	306	0
0	581658	307	0
0	581658	308	-nan
0	581658	309	0
0	581658	310	-nan
0	581658	311	0
0	581658	312	0
0	581658	313	0
0	581658	314	-nan
0	581658	315	-nan
0	581658	316	-nan
0	581658	317	0
0	581658	318	0
0	581658	319	0
0	581658	320	-nan
0	581658	321	-nan
0	581658	322	0
0	581658	323	0
0	581658	324	-nan
0	581658	325	-nan
0	581658	326	-nan
0	581658	327	-nan
0	581658	328	0
0	581658	329	-nan
0	581658	330	-nan
0	581658	331	0
0	581658	332	-nan
0	581658	333	0
0	581658	334	-nan
0	581658	335	-nan
0	581658	336	-nan
0	581658	337	-nan
0	581658	338	-nan
0	581658	339	-nan
0	581658	340	0
0	581658	341	-nan
0	581658	342	0.5
0	581658	343	-nan
0	581658	344	-nan
0	581658	345	-nan
0	581658	346	0
0	581658	347	-nan
0	581658	348	-nan
0	581658	349	0
0	581658	350	0
0	581658	351	-nan
0	581658	352	0
0	581658	353	-nan
0	581658	354	-nan
0	581658	355	-nan
0	581658	356	-nan
0	581658	357	0
0	581658	358	-nan
0	581658	359	-nan
0	581658	360	-nan
0	581658	361	-nan
0	581658	362	0
0	581658	363	0
0	581658	364	0
0	581658	365	-nan
0	581658	366	0
0	581658	367	-nan
0	581658	368	-nan
0	581658	369	0
0	581658	370	0
0	581658	371	0
0	581658	372	-nan
0	581658	373	0
0	581658	374	-nan
0	581658	375	-nan
0	581658	376	-nan
0	581658	377	0
0	581658	378	-nan
0	581658	379	0
0	581658	380	-nan
0	581658	381	0
0	581658	382	-nan
0	581658	383	0
0	581658	384	0
0	581658	385	-nan
0	581658	386	-nan
0	581658	387	-nan
0	581658	388	0
0	581658	389	-nan
0	581658	390	-nan
0	581658	391	-nan
0	581658	392	-nan
0	581658	393	0
0	581658	394	-nan
0	581658	395	-nan
0	581658	396	0
0	581658	397	-nan
0	581658	398	0
0	581658	399	-nan
0	581658	400	-nan
0	581658	401	0
0	581658	402	0
0	581658	403	-nan
0	581658	404	0
0	581658	405	0
0	581658	406	0
0	581658	407	-nan
0	581658	408	-nan
0	581658	409	-nan
0	581658	410	-nan
0	581658	411	0
0	581658	412	0
0	581658	413	-nan
0	581658	414	-nan
0	581658	415	-nan
0	581658	416	-nan
0	581658	417	-nan
0	581658	418	0
0	581658	419	-nan
0	581658	420	-nan
0	581658	421	0
0	581658	422	-nan
0	581658	423	0
0	581658	424	-nan
0	581658	425	-nan
0	581658	426	-nan
0	581658	427	-nan
0	581658	428	0
0	581658	429	0
0	581658	430	0
0	581658	431	0
0	581658	432	-nan
0	581658	433	0
0	581658	434	-nan
0	581658	435	-nan
0	581658	436	-nan
0	581658	437	-nan
0	581658	438	0
0	581658	439	-nan
0	581658	440	-nan
0	581658	441	0
0	581658	442	-nan
0	581658	443	-nan
0	581658	444	-nan
0	581658	445	-nan
0	581658	446	0
0	581658	447	0
0	581658	448	-nan
0	581658	449	-nan
0	581658	450	-nan
0	581658	451	0
0	581658	452	-nan
0	581658	453	0
0	581658	454	-nan
0	581658	455	-nan
0	581658	456	0
0	581658	457	0
0	581658	458	0
0	581658	459	0
0	581658	460	0
0	581658	461	0
0	581658	462	-nan
0	581658	463	-nan
0	581658	464	-nan
0	581658	465	-nan
0	581658	466	-nan
0	581658	467	0
0	581658	468	0
0	581658	469	0
0	581658	470	-nan
0	581658	471	-nan
0	581658	472	0
0	581658	473	-nan
0	581658	474	-nan
0	581658	475	0
0	581658	476	0
0	581658	477	-nan
0	581658	478	-nan
0	581658	479	-nan
0	581658	480	-nan
0	581658	481	0
0	581658	482	-nan
0	581658	483	0
0	581658	484	-nan
0	581658	485	0
0	581658	486	-nan
0	581658	487	-nan
0	581658	488	0
0	581658	489	0
0	581658	490	-nan
0	581658	491	0
0	581658	492	-nan
0	581658	493	-nan
0	581658	494	-nan
0	581658	495	-nan
0	581658	496	-nan
0	581658	497	-nan
0	581658	498	0
0	581658	499	-nan
0	581658	500	-nan
0	581658	501	-nan
0	581658	502	-nan
0	581658	503	0
0	581658	504	-nan
0	581658	505	-nan
0	581658	506	-nan
0	581658	507	-nan
0	581658	508	-nan
0	581658	509	0
0	581658	510	0
0	581658	511	-nan
0	581658	512	1
0	581658	513	0
0	581658	514	0
0	581658	515	0
0	581658	516	0
0	581658	517	-nan
0	581658	518	-nan
0	581658	519	0
0	581658	520	0
0	581658	521	-nan
0	581658	522	-nan
0	581658	523	0
0	581658	524	-nan
0	581658	525	0
0	581658	526	-nan
0	581658	527	0
0	581658	528	0
0	581658	529	-nan
0	581658	530	-nan
0	581658	531	-nan
0	581658	532	0
0	581658	533	0.5
0	581658	534	0.5
0	581658	535	-nan
0	581658	536	0
0	581658	537	0
0	581658	538	0
0	581658	539	-nan
0	581658	540	-nan
0	581658	541	-nan
0	581658	542	0
0	581658	543	-nan
0	581658	544	-nan
0	581658	545	-nan
0	581658	546	-nan
0	581658	547	-nan
0	581658	548	-nan
0	581658	549	0
0	581658	550	-nan
0	581658	551	-nan
0	581658	552	0
0	581658	553	0
0	581658	554	0
0	581658	555	0
0	581658	556	-nan
0	581658	557	-nan
0	581658	558	0
0	581658	559	-nan
0	581658	560	-nan
0	581658	561	0
0	581658	562	-nan
0	581658	563	-nan
0	581658	564	0
0	581658	565	-nan
0	581658	566	-nan
0	581658	567	-nan
0	581658	568	-nan
0	581658	569	-nan
0	581658	570	-nan
0	581658	571	-nan
0	581658	572	0
0	581658	573	0
0	581658	574	-nan
0	581658	575	-nan
0	581658	576	-nan
0	581658	577	0
0	581658	578	-nan
0	581658	579	0
0	581658	580	0
0	581658	581	0
0	581658	582	0
0	581658	583	-nan
0	581658	584	-nan
0	581658	585	-nan
0	581658	586	0
0	581658	587	0
0	581658	588	-nan
0	581658	589	0
0	581658	590	0
0	581658	591	-nan
0	581658	592	-nan
0	581658	593	0
0	581658	594	-nan
0	581658	595	-nan
0	581658	596	-nan
0	581658	597	-nan
0	581658	598	-nan
0	581658	599	-nan
0	581658	600	0
0	581658	601	-nan
0	581658	602	0
0	581658	603	-nan
0	581658	604	-nan
0	581658	605	-nan
0	581658	606	-nan
0	581658	607	-nan
0	581658	608	0
0	581658	609	-nan
0	581658	610	-nan
0	581658	611	-nan
0	581658	612	-nan
0	581658	613	-nan
0	581658	614	-nan
0	581658	615	-nan
0	581658	616	-nan
0	581658	617	0
0	581658	618	-nan
0	581658	619	-nan
0	581658	620	-nan
0	581658	621	-nan
0	581658	622	-nan
0	581658	623	-nan
0	581658	624	0
0	581658	625	0
0	581658	626	-nan
0	581658	627	0
0	581658	628	-nan
0	581658	629	0
0	581658	630	0
0	581658	631	-nan
0	581658	632	-nan
0	581658	633	0
0	581658	634	-nan
0	581658	635	0
0	581658	636	-nan
0	581658	637	-nan
0	581658	638	0
0	581658	639	0
0	581658	640	-nan
0	581658	641	0
0	581658	642	-nan
0	581658	643	0
0	581658	644	0
0	581658	645	-nan
0	581658	646	0
0	581658	647	-nan
0	581658	648	-nan
0	581658	649	-nan
0	581658	650	0
0	581658	651	0
0	581658	652	-nan
0	581658	653	0
0	581658	654	-nan
0	581658	655	0
0	581658	656	-nan
0	581658	657	-nan
0	581658	658	-nan
0	581658	659	-nan
0	581658	660	-nan
0	581658	661	-nan
0	581658	662	0
0	581658	663	-nan
0	581658	664	-nan
0	581658	665	0
0	581658	666	-nan
0	581658	667	-nan
0	581658	668	-nan
0	581658	669	-nan
0	581658	670	-nan
0	581658	671	0
0	581658	672	-nan
0	581658	673	-nan
0	581658	674	-nan
0	581658	675	-nan
0	581658	676	-nan
0	581658	677	0
0	581658	678	-nan
0	581658	679	0
0	581658	680	-nan
0	581658	681	0
0	581658	682	-nan
0	581658	683	-nan
0	581658	684	-nan
0	581658	685	0
0	581658	686	0
0	581658	687	0
0	581658	688	0
0	581658	689	0
0	581658	690	-nan
0	581658	691	-nan
0	581658	692	0
0	581658	693	0
0	581658	694	-nan
0	581658	695	-nan
0	581658	696	0
0	581658	697	0
0	581658	698	-nan
0	581658	699	-nan
0	581658	700	-nan
0	581658	701	0
0	581658	702	-nan
0	581658	703	0.5
0	581658	704	-nan
0	581658	705	-nan
0	581658	706	-nan
0	581658	707	0
0	581658	708	-nan
0	581658	709	-nan
0	581658	710	0
0	581658	711	-nan
0	581658	712	-nan
0	581658	713	-nan
0	581658	714	-nan
0	581658	715	-nan
0	581658	716	0
0	581658	717	0
0	581658	718	0
0	581658	719	0
0	581658	720	0
0	581658	721	0
0	581658	722	-nan
0	581658	723	-nan
0	581658	724	-nan
0	581658	725	-nan
0	581658	726	-nan
0	581658	727	0
0	581658	728	-nan
0	581658	729	0
0	581658	730	-nan
0	581658	731	0
0	581658	732	-nan
0	581658	733	-nan
0	581658	734	0.5
0	581658	735	0
0	581658	736	-nan
0	581658	737	-nan
0	581658	738	-nan
0	581658	739	0
0	581658	740	-nan
0	581658	741	-nan
0	581658	742	-nan
0	581658	743	-nan
0	581658	744	-nan
0	581658	745	-nan
0	581658	746	-nan
0	581658	747	-nan
0	581658	748	-nan
0	581658	749	0
0	581658	750	-nan
0	581658	751	0
0	581658	752	0
0	581658	753	-nan
0	581658	754	-nan
0	581658	755	0
0	581658	756	-nan
0	581658	757	-nan
0	581658	758	0
0	581658	759	0
0	581658	760	0
0	581658	761	-nan
0	581658	762	-nan
0	581658	763	0
0	581658	764	-nan
0	581658	765	-nan
0	581658	766	0
0	581658	767	-nan
0	581658	768	-nan
0	581658	769	-nan
0	581658	770	0
0	581658	771	-nan
0	581658	772	0
0	581658	773	-nan
0	581658	774	-nan
0	581658	775	-nan
0	581658	776	-nan
0	581658	777	-nan
0	581658	778	-nan
0	581658	779	-nan
0	581658	780	0
0	581658	781	0
0	581658	782	-nan
0	581658	783	-nan
0	581658	784	-nan
0	581658	785	-nan
0	581658	786	-nan
0	581658	787	-nan
0	581658	788	-nan
0	581658	789	-nan
0	581658	790	-nan
0	581658	791	-nan
0	581658	792	0
0	581658	793	-nan
0	581658	794	-nan
0	581658	795	-nan
0	581658	796	0
0	581658	797	0
0	581658	798	-nan
0	581658	799	0
0	581658	800	-nan
0	581658	801	-nan
0	581658	802	0
0	581658	803	-nan
0	581658	804	0
0	581658	805	-nan
0	581658	806	0
0	581658	807	-nan
0	581658	808	-nan
0	581658	809	-nan
0	581658	810	-nan
0	581658	811	-nan
0	581658	812	-nan
0	581658	813	-nan
0	581658	814	-nan
0	581658	815	-nan
0	581658	816	-nan
0	581658	817	0
0	581658	818	-nan
0	581658	819	-nan
0	581658	820	-nan
0	581658	821	-nan
0	581658	822	0
0	581658	823	0
0	581658	824	-nan
0	581658	825	-nan
0	581658	826	-nan
0	581658	827	-nan
0	581658	828	0.5
0	581658	829	-nan
0	581658	830	-nan
0	581658	831	-nan
0	581658	832	-nan
0	581658	833	0
0	581658	834	0
0	581658	835	-nan
0	581658	836	-nan
0	581658	837	0
0	581658	838	0
0	581658	839	-nan
0	581658	840	-nan
0	581658	841	-nan
0	581658	842	-nan
0	581658	843	-nan
0	581658	844	-nan
0	581658	845	-nan
0	581658	846	0
0	581658	847	-nan
0	581658	848	-nan
0	581658	849	-nan
0	581658	850	-nan
0	581658	851	-nan
0	581658	852	-nan
0	581658	853	-nan
0	581658	854	-nan
0	581658	855	0
0	581658	856	-nan
0	581658	857	-nan
0	581658	858	-nan
0	581658	859	-nan
0	581658	860	0
0	581658	861	-nan
0	581658	862	-nan
0	581658	863	-nan
0	581658	864	0
0	581658	865	-nan
0	581658	866	-nan
0	581658	867	-nan
0	581658	868	-nan
0	581658	869	-nan
0	581658	870	0.5
0	581658	871	-nan
0	581658	872	-nan
0	581658	873	-nan
0	581658	874	-nan
0	581658	875	-nan
0	581658	876	-nan
0	581658	877	0
0	581658	878	-nan
0	581658	879	-nan
0	581658	880	-nan
0	581658	881	0
0	581658	882	-nan
0	581658	883	0
0	581658	884	0
0	581658	885	-nan
0	581658	886	-nan
0	581658	887	0
0	581658	888	0
0	581658	889	-nan
0	581658	890	-nan
0	581658	891	-nan
0	581658	892	-nan
0	581658	893	0
0	581658	894	-nan
0	581658	895	0
0	581658	896	0
0	581658	897	-nan
0	581658	898	-nan
0	581658	899	-nan
0	581658	900	-nan
0	581658	901	-nan
0	581658	902	-nan
0	581658	903	-nan
0	581658	904	0
0	581658	905	-nan
0	581658	906	0
0	581658	907	-nan
0	581658	908	-nan
0	581658	909	-nan
0	581658	910	-nan
0	581658	911	0
0	581658	912	-nan
0	581658	913	-nan
0	581658	914	0
0	581658	915	0
0	581658	916	-nan
0	581658	917	-nan
0	581658	918	0
0	581658	919	-nan
0	581658	920	0
0	581658	921	-nan
0	581658	922	-nan
0	581658	923	-nan
0	581658	924	0
0	581658	925	-nan
0	581658	926	0
0	581658	927	-nan
0	581658	928	-nan
0	581658	929	0
0	581658	930	-nan
0	581658	931	-nan
0	581658	932	0
0	581658	933	0
0	581658	934	0
0	581658	935	-nan
0	581658	936	0
0	581658	937	-nan
0	581658	938	-nan
0	581658	939	0
0	581658	940	0
0	581658	941	0
0	581658	942	-nan
0	581658	943	-nan
0	581658	944	-nan
0	581658	945	-nan
0	581658	946	-nan
0	581658	947	-nan
0	581658	948	0
0	581658	949	0
0	581658	950	-nan
0	581658	951	-nan
0	581658	952	-nan
0	581658	953	-nan
0	581658	954	-nan
0	581658	955	-nan
0	581658	956	0
0	581658	957	-nan
0	581658	958	-nan
0	581658	959	0
0	581658	960	-nan
0	581658	961	0
0	581658	962	-nan
0	581658	963	-nan
0	581658	964	0
0	581658	965	0
0	581658	966	-nan
0	581658	967	-nan
0	581658	968	-nan
0	581658	969	0
0	581658	970	-nan
0	581658	971	-nan
0	581658	972	0
0	581658	973	-nan
0	581658	974	-nan
0	581658	975	-nan
0	581658	976	-nan
0	581658	977	-nan
0	581658	978	-nan
0	581658	979	0
0	581658	980	-nan
0	581658	981	-nan
0	581658	982	0
0	581658	983	0
0	581658	984	-nan
0	581658	985	-nan
0	581658	986	-nan
0	581658	987	-nan
0	581658	988	0
0	581658	989	-nan
0	581658	990	0
0	581658	991	-nan
0	581658	992	-nan
0	581658	993	-nan
0	581658	994	0
0	581658	995	-nan
0	581658	996	-nan
0	581658	997	-nan
0	581658	998	-nan
0	581658	999	-nan
0	581658	1000	0
0	581658	1001	-nan
0	581658	1002	-nan
0	581658	1003	-nan
0	581658	1004	0
0	581658	1005	0
0	581658	1006	0
0	581658	1007	-nan
0	581658	1008	-nan
0	581658	1009	0
0	581658	1010	0
0	581658	1011	-nan
0	581658	1012	-nan
0	581658	1013	-nan
0	581658	1014	-nan
0	581658	1015	-nan
0	581658	1016	-nan
0	581658	1017	-nan
0	581658	1018	0
0	581658	1019	-nan
0	581658	1020	-nan
0	581658	1021	-nan
0	581658	1022	-nan
0	581658	1023	0
0	581658	1024	-nan
0	581658	1025	-nan
0	581658	1026	-nan
0	581658	1027	-nan
0	581658	1028	-nan
0	581658	1029	-nan
0	581658	1030	-nan
0	581658	1031	0
0	581658	1032	-nan
0	581658	1033	-nan
0	581658	1034	-nan
0	581658	1035	0
0	581658	1036	-nan
0	581658	1037	-nan
0	581658	1038	-nan
0	581658	1039	-nan
0	581658	1040	-nan
0	581658	1041	0
0	581658	1042	-nan
0	581658	1043	0
0	581658	1044	-nan
0	581658	1045	-nan
0	581658	1046	0
0	581658	1047	-nan
0	581658	1048	-nan
0	581658	1049	-nan
0	581658	1050	-nan
0	581658	1051	-nan
0	581658	1052	-nan
0	581658	1053	-nan
0	581658	1054	0
0	581658	1055	0
0	581658	1056	0
0	581658	1057	0
0	581658	1058	0
0	581658	1059	-nan
0	581658	1060	-nan
0	581658	1061	-nan
0	581658	1062	-nan
0	581658	1063	0
0	581658	1064	-nan
0	581658	1065	-nan
0	581658	1066	0
0	581658	1067	-nan
0	581658	1068	-nan
0	581658	1069	-nan
0	581658	1070	-nan
0	581658	1071	0
0	581658	1072	-nan
0	581658	1073	-nan
0	581658	1074	-nan
0	581658	1075	-nan
0	581658	1076	-nan
0	581658	1077	-nan
0	581658	1078	-nan
0	581658	1079	0
0	581658	1080	-nan
0	581658	1081	-nan
0	581658	1082	-nan
0	581658	1083	-nan
0	581658	1084	0
0	581658	1085	0
0	581658	1086	-nan
0	581658	1087	-nan
0	581658	1088	-nan
0	581658	1089	-nan
0	581658	1090	0
0	581658	1091	-nan
0	581658	1092	-nan
0	581658	1093	-nan
0	581658	1094	-nan
0	581658	1095	-nan
0	581658	1096	-nan
0	581658	1097	-nan
0	581658	1098	-nan
0	581658	1099	0
0	581658	1100	-nan
0	581658	1101	-nan
0	581658	1102	-nan
0	581658	1103	-nan
0	581658	1104	0
0	581658	1105	0
0	581658	1106	-nan
0	581658	1107	-nan
0	581658	1108	-nan
0	581658	1109	-nan
0	581658	1110	-nan
0	581658	1111	-nan
0	581658	1112	-nan
0	581658	1113	-nan
0	581658	1114	-nan
0	581658	1115	-nan
0	581658	1116	0
0	581658	1117	-nan
0	581658	1118	0
0	581658	1119	0
0	581658	1120	-nan
0	581658	1121	-nan
0	581658	1122	0
0	581658	1123	0
0	581658	1124	-nan
0	581658	1125	-nan
0	581658	1126	0
0	581658	1127	-nan
0	581658	1128	-nan
0	581658	1129	-nan
0	581658	1130	0
0	581658	1131	-nan
0	581658	1132	-nan
0	581658	1133	-nan
0	581658	1134	-nan
0	581658	1135	-nan
0	581658	1136	-nan
0	581658	1137	-nan
0	581658	1138	-nan
0	581658	1139	0
0	581658	1140	-nan
0	581658	1141	-nan
0	581658	1142	-nan
0	581658	1143	1
0	581658	1144	-nan
0	581658	1145	-nan
0	581658	1146	-nan
0	581658	1147	-nan
0	581658	1148	-nan
0	581658	1149	-nan
0	581658	1150	0
0	581658	1151	0
0	581658	1152	-nan
0	581658	1153	-nan
0	581658	1154	-nan
0	581658	1155	-nan
0	581658	1156	-nan
0	581658	1157	-nan
0	581658	1158	-nan
0	581658	1159	-nan
0	581658	1160	-nan
0	581658	1161	-nan
0	581658	1162	0
0	581658	1163	-nan
0	581658	1164	-nan
0	581658	1165	-nan
0	581658	1166	-nan
0	581658	1167	-nan
0	581658	1168	-nan
0	581658	1169	0
0	581658	1170	-nan
0	581658	1171	-nan
0	581658	1172	0
0	581658	1173	-nan
0	581658	1174	-nan
0	581658	1175	-nan
0	581658	1176	-nan
0	581658	1177	-nan
0	581658	1178	-nan
vector 1  abilene_network.node[1].content_store  hit_node[1]  ETV
1	581658	1	0.95348837209302
1	581658	2	0.60869565217391
1	581658	3	0.58333333333333
1	581658	4	0.42857142857143
1	581658	5	0
1	581658	6	0.33333333333333
1	581658	7	0
1	581658	8	0.63157894736842
1	581658	9	0.76923076923077
1	581658	10	0.94444444444444
1	581658	11	0.5
1	581658	12	0
1	581658	13	0
1	581658	14	0.14285714285714
1	581658	15	0.16666666666667
1	581658	16	0.38461538461538
1	581658	17	0.7
1	581658	18	0.2
1	581658	19	0
1	581658	20	0.33333333333333
1	581658	21	0.30769230769231
1	581658	22	0
1	581658	23	0
1	581658	24	0.25
1	581658	25	0.25
1	581658	26	0
1	581658	27	0
1	581658	28	0.58333333333333
1	581658	29	0
1	581658	30	0.28571428571429
1	581658	31	0
1	581658	32	0.27272727272727
1	581658	33	0.375
1	581658	34	0.5
1	581658	35	0
1	581658	36	0.5
1	581658	37	0
1	581658	38	0.4
1	581658	39	0
1	581658	40	0.4
1	581658	41	0
1	581658	42	0.28571428571429
1	581658	43	0.25
1	581658	44	0
1	581658	45	0
1	581658	46	0.28571428571429
1	581658	47	0
1	581658	48	0
1	581658	49	0.16666666666667
1	581658	50	0.42857142857143
1	581658	51	0
1	581658	52	0
1	581658	53	0
1	581658	54	0
1	581658	55	0.4
1	581658	56	0
1	581658	57	0
1	581658	58	0
1	581658	59	0
1	581658	60	0.22222222222222
1	581658	61	0
1	581658	62	0
1	581658	63	0
1	581658	64	0
1	581658	65	0
1	581658	66	0
1	581658	67	0
1	581658	68	0.25
1	581658	69	0
1	581658	70	0.2
1	581658	71	0
1	581658	72	0
1	581658	73	0
1	581658	74	0
1	581658	75	0.6
1	581658	76	0
1	581658	77	0
1	581658	78	0.16666666666667
1	581658	79	0
1	581658	80	0.57142857142857
1	581658	81	0
1	581658	82	0.14285714285714
1	581658	83	-nan
1	581658	84	0
1	581658	85	0
1	581658	86	0
1	581658	87	0
1	581658	88	0
1	581658	89	0.2
1	581658	90	0.25
1	581658	91	0
1	581658	92	0.33333333333333
1	581658	93	0
1	581658	94	0
1	581658	95	0.42857142857143
1	581658	96	0.2
1	581658	97	0
1	581658	98	0
1	581658	99	0
1	581658	100	0
1	581658	101	0
1	581658	102	0.2
1	581658	103	0.2
1	581658	104	-nan
1	581658	105	0
1	581658	106	0
1	581658	107	0.28571428571429
1	581658	108	0.11111111111111
1	581658	109	0
1	581658	110	0
1	581658	111	0
1	581658	112	0
1	581658	113	0
1	581658	114	-nan
1	581658	115	0.14285714285714
1	581658	116	0
1	581658	117	0
1	581658	118	0
1	581658	119	0
1	581658	120	0
1	581658	121	0
1	581658	122	0
1	581658	123	0
1	581658	124	0
1	581658	125	0
1	581658	126	0
1	581658	127	0
1	581658	128	0.33333333333333
1	581658	129	0
1	581658	130	0
1	581658	131	0
1	581658	132	0
1	581658	133	0
1	581658	134	0.66666666666667
1	581658	135	0.33333333333333
1	581658	136	0
1	581658	137	0
1	581658	138	0
1	581658	139	0
1	581658	140	0
1	581658	141	0
1	581658	142	0.33333333333333
1	581658	143	0
1	581658	144	0
1	581658	145	0
1	581658	146	0
1	581658	147	0.33333333333333
1	581658	148	0
1	581658	149	0
1	581658	150	-nan
1	581658	151	0
1	581658	152	0
1	581658	153	0
1	581658	154	-nan
1	581658	155	0.5
1	581658	156	0
1	581658	157	0
1	581658	158	0
1	581658	159	0
1	581658	160	0
1	581658	161	0
1	581658	162	0
1	581658	163	0
1	581658	164	0
1	581658	165	0
1	581658	166	0
1	581658	167	0
1	581658	168	0
1	581658	169	0
1	581658	170	0
1	581658	171	0
1	581658	172	0.5
1	581658	173	0
1	581658	174	0.2
1	581658	175	0.25
1	581658	176	0
1	581658	177	0
1	581658	178	0
1	581658	179	0
1	581658	180	0
1	581658	181	0.5
1	581658	182	0
1	581658	183	0
1	581658	184	0
1	581658	185	0.6
1	581658	186	0
1	581658	187	-nan
1	581658	188	0
1	581658	189	0
1	581658	190	0
1	581658	191	0
1	581658	192	0
1	581658	193	0
1	581658	194	0.4
1	581658	195	0.5
1	581658	196	0
1	581658	197	0
1	581658	198	0
1	581658	199	0
1	581658	200	0
1	581658	201	0
1	581658	202	0
1	581658	203	0
1	581658	204	0
1	581658	205	0
1	581658	206	0
1	581658	207	-nan
1	581658	208	0
1	581658	209	0
1	581658	210	0
1	581658	211	0.5
1	581658	212	0
1	581658	213	0
1	581658	214	0
1	581658	215	0
1	581658	216	0
1	581658	217	0
1	581658	218	0
1	581658	219	0
1	581658	220	0
1	581658	221	0
1	581658	222	0
1	581658	223	-nan
1	581658	224	0
1	581658	225	0
1	581658	226	0
1	581658	227	0
1	581658	228	0
1	581658	229	0
1	581658	230	0.14285714285714
1	581658	231	0
1	581658	232	0
1	581658	233	0
1	581658	234	0
1	581658	235	0
1	581658	236	-nan
1	581658	237	0
1	581658	238	0
1	581658	239	0
1	581658	240	0.25
1	581658	241	0
1	581658	242	0
1	581658	243	0
1	581658	244	0
1	581658	245	0
1	581658	246	0
1	581658	247	0
1	581658	248	0.25
1	581658	249	0
1	581658	250	0
1	581658	251	0.25
1	581658	252	0
1	581658	253	0
1	581658	254	-nan
1	581658	255	0
1	581658	256	0
1	581658	257	0
1	581658	258	0
1	581658	259	0
1	581658	260	0
1	581658	261	0
1	581658	262	-nan
1	581658	263	0
1	581658	264	0
1	581658	265	0
1	581658	266	0
1	581658	267	0
1	581658	268	0.66666666666667
1	581658	269	0
1	581658	270	0
1	581658	271	0
1	581658	272	0.33333333333333
1	581658	273	-nan
1	581658	274	0
1	581658	275	0
1	581658	276	0
1	581658	277	0
1	581658	278	-nan
1	581658	279	0
1	581658	280	0
1	581658	281	0.33333333333333
1	581658	282	0
1	581658	283	0
1	581658	284	0
1	581658	285	0
1	581658	286	0
1	581658	287	0
1	581658	288	0
1	581658	289	0
1	581658	290	0
1	581658	291	0
1	581658	292	0
1	581658	293	-nan
1	581658	294	-nan
1	581658	295	0
1	581658	296	0
1	581658	297	0
1	581658	298	0
1	581658	299	0
1	581658	300	0
1	581658	301	0
1	581658	302	0
1	581658	303	0
1	581658	304	0
1	581658	305	-nan
1	581658	306	0
1	581658	307	0
1	581658	308	-nan
1	581658	309	0
1	581658	310	0
1	581658	311	0
1	581658	312	0
1	581658	313	0
1	581658	314	-nan
1	581658	315	-nan
1	581658	316	0
1	581658	317	0
1	581658	318	0
1	581658	319	0.16666666666667
1	581658	320	0
1	581658	321	0
1	581658	322	0
1	581658	323	0
1	581658	324	0
1	581658	325	-nan
1	581658	326	0
1	581658	327	0
1	581658	328	0
1	581658	329	0
1	581658	330	0
1	581658	331	0.33333333333333
1	581658	332	0
1	581658	333	0
1	581658	334	0
1	581658	335	0
1	581658	336	0
1	581658	337	-nan
1	581658	338	0
1	581658	339	0
1	581658	340	0
1	581658	341	0
1	581658	342	0
1	581658	343	0
1	581658	344	0
1	581658	345	-nan
1	581658	346	0
1	581658	347	0
1	581658	348	-nan
1	581658	349	0
1	581658	350	0.33333333333333
1	581658	351	0
1	581658	352	0
1	581658	353	-nan
1	581658	354	-nan
1	581658	355	0
1	581658	356	0
1	581658	357	0
1	581658	358	0
1	581658	359	-nan
1	581658	360	-nan
1	581658	361	0
1	581658	362	0
1	581658	363	0
1	581658	364	0
1	581658	365	0
1	581658	366	0
1	581658	367	0
1	581658	368	-nan
1	581658	369	0
1	581658	370	0.5
1	581658	371	0
1	581658	372	-nan
1	581658	373	0
1	581658	374	0
1	581658	375	-nan
1	581658	376	0
1	581658	377	0
1	581658	378	0
1	581658	379	0
1	581658	380	0
1	581658	381	0
1	581658	382	0
1	581658	383	0
1	581658	384	0
1	581658	385	0
1	581658	386	0
1	581658	387	0
1	581658	388	0
1	581658	389	-nan
1	581658	390	-nan
1	581658	391	-nan
1	581658	392	0
1	581658	393	0
1	581658	394	0
1	581658	395	-nan
1	581658	396	0
1	581658	397	0
1	581658	398	0
1	581658	399	0
1	581658	400	0
1	581658	401	0
1	581658	402	0
1	581658	403	0
1	581658	404	0
1	581658	405	0
1	581658	406	0
1	581658	407	0
1	581658	408	-nan
1	581658	409	0
1	581658	410	0
1	581658	411	0
1	581658	412	0
1	581658	413	-nan
1	581658	414	0
1	581658	415	0
1	581658	416	-nan
1	581658	417	0
1	581658	418	0
1	581658	419	-nan
1	581658	420	0
1	581658	421	0
1	581658	422	0
1	581658	423	0
1	581658	424	-nan
1	581658	425	0
1	581658	426	0
1	581658	427	0
1	581658	428	0
1	581658	429	0
1	581658	430	0
1	581658	431	0
1	581658	432	-nan
1	581658	433	0
1	581658	434	-nan
1	581658	435	0
1	581658	436	0
1	581658	437	0
1	581658	438	0
1	581658	439	-nan
1	581658	440	-nan
1	581658	441	0
1	581658	442	0
1	581658	443	-nan
1	581658	444	0
1	581658	445	0
1	581658	446	0
1	581658	447	0
1	581658	448	-nan
1	581658	449	0
1	581658	450	0
1	581658	451	0
1	581658	452	0
1	581658	453	0.75
1	581658	454	0
1	581658	455	0
1	581658	456	0
1	581658	457	0
1	581658	458	0
1	581658	459	0
1	581658	460	0
1	581658	461	0
1	581658	462	0
1	581658	463	0
1	581658	464	-nan
1	581658	465	0
1	581658	466	0
1	581658	467	0
1	581658	468	0
1	581658	469	0
1	581658	470	0
1	581658	471	0
1	581658	472	0
1	581658	473	-nan
1	581658	474	-nan
1	581658	475	0
1	581658	476	0
1	581658	477	0
1	581658	478	0
1	581658	479	0
1	581658	480	0
1	581658	481	0
1	581658	482	0
1	581658	483	0
1	581658	484	-nan
1	581658	485	0
1	581658	486	-nan
1	581658	487	0.5
1	581658	488	0
1	581658	489	0
1	581658	490	-nan
1	581658	491	0
1	581658	492	0
1	581658	493	-nan
1	581658	494	0
1	581658	495	-nan
1	581658	496	0
1	581658	497	0
1	581658	498	0
1	581658	499	0
1	581658	500	0
1	581658	501	-nan
1	581658	502	0
1	581658	503	0
1	581658	504	0
1	581658	505	0
1	581658	506	-nan
1	581658	507	-nan
1	581658	508	0
1	581658	509	0
1	581658	510	0
1	581658	511	0
1	581658	512	-nan
1	581658	513	0
1	581658	514	0
1	581658	515	0
1	581658	516	0
1	581658	517	0
1	581658	518	-nan
1	581658	519	0
1	581658	520	0
1	581658	521	0
1	581658	522	0
1	581658	523	0.5
1	581658	524	0
1	581658	525	0
1	581658	526	0
1	581658	527	0
1	581658	528	0
1	581658	529	0
1	581658	530	-nan
1	581658	531	0
1	581658	532	0
1	581658	533	0
1	581658	534	0
1	581658	535	-nan
1	581658	536	0
1	581658	537	0
1	581658	538	0
1	581658	539	0
1	581658	540	0
1	581658	541	-nan
1	581658	542	0
1	581658	543	0
1	581658	544	-nan
1	581658	545	-nan
1	581658	546	0
1	581658	547	-nan
1	581658	548	-nan
1	581658	549	0
1	581658	550	0
1	581658	551	-nan
1	581658	552	0
1	581658	553	0
1	581658	554	0
1	581658	555	0
1	581658	556	0