file 463842166 1397827624                                       
version 2
run General-227-20140418-15:25:25-1824
attr D costprob0.01
attr F nrr
attr R lru
attr a 0.8
attr configname General
attr csize 10
attr ctlg 10^8
attr datetime 20140418-15:25:25
attr experiment General
attr inifile omnetpp.ini
attr iterationvars "$net=simple_scenario, $rep=1, $priceratiovalue=10, $a=0.8, $ctlg=10^8, $F=nrr, $ttl=1000, $D=costprob0.01, $R=lru, $csize=10"
attr iterationvars2 "$net=simple_scenario, $rep=1, $priceratiovalue=10, $a=0.8, $ctlg=10^8, $F=nrr, $ttl=1000, $D=costprob0.01, $R=lru, $csize=10, $repetition=0"
attr measurement "$net=simple_scenario, $rep=1, $priceratiovalue=10, $a=0.8, $ctlg=10^8, $F=nrr, $ttl=1000, $D=costprob0.01, $R=lru, $csize=10"
attr net simple_scenario
attr network networks.${net=simple_scenario}_network
attr priceratiovalue 10
attr processid 1824
attr rep 1
attr repetition 0
attr replication #0
attr resultdir results
attr runnumber 227
attr seedset 1
attr ttl 1000

vector 0  simple_scenario_network.node[0].content_store  hit_node[0]  ETV
0	1005 15138335 1488167 1488167 1 699051 699051 0 1 -nan -nan
0	15139340 15746649 1488167 1488167 699052 1398102 699051 0 0 -nan -nan
0	30885989 16058565 1488167 1488167 1398103 2097153 699051 0 0 -nan -nan
0	46944554 16062996 1488167 1488167 2097154 2796204 699051 0 0 -nan -nan
0	63007550 15927096 1488167 1488167 2796205 3489213 693009 0 0 -nan -nan
vector 1  simple_scenario_network.node[1].content_store  hit_node[1]  ETV
1	78934720 15203101 1488167 1488167 1 699051 699051 0 0.25 -nan -nan
1	94137821 15761733 1488167 1488167 699052 1398102 699051 0 0 -nan -nan
1	109899554 16068420 1488167 1488167 1398103 2097153 699051 0 0 -nan -nan
1	125967974 16070469 1488167 1488167 2097154 2796204 699051 0 0 -nan -nan
1	142038443 15933213 1488167 1488167 2796205 3489213 693009 0 0 -nan -nan
vector 2  simple_scenario_network.node[2].content_store  hit_node[2]  ETV
2	157971730 15203176 1488167 1488167 1 699051 699051 0 0.4704641350211 -nan -nan
2	173174906 15762141 1488167 1488167 699052 1398102 699051 0 0 -nan -nan
2	188937047 16068318 1488167 1488167 1398103 2097153 699051 0 0 -nan -nan
2	205005365 16070700 1488167 1488167 2097154 2796204 699051 0 0 -nan -nan
2	221076065 15933090 1488167 1488167 2796205 3489213 693009 0 0 -nan -nan
vector 3  simple_scenario_network.node[3].content_store  hit_node[3]  ETV
3	237009229 15203067 1488167 1488167 1 699051 699051 0 0 -nan -nan
3	252212296 15761733 1488167 1488167 699052 1398102 699051 0 0 -nan -nan
3	267974029 16068420 1488167 1488167 1398103 2097153 699051 0 0 -nan -nan
3	284042449 16070469 1488167 1488167 2097154 2796204 699051 0 0 -nan -nan
3	300112918 15933213 1488167 1488167 2796205 3489213 693009 0 0 -nan -nan
vector 4  simple_scenario_network.node[4].content_store  hit_node[4]  ETV
4	316046205 15202950 1488167 1488167 1 699051 699051 0 0 -nan -nan
4	331249155 15762141 1488167 1488167 699052 1398102 699051 0 0 -nan -nan
4	347011296 16068318 1488167 1488167 1398103 2097153 699051 0 0 -nan -nan
4	363079614 16070700 1488167 1488167 2097154 2796204 699051 0 0 -nan -nan
4	379150314 15933090 1488167 1488167 2796205 3489213 693009 0 0 -nan -nan
vector 5  simple_scenario_network.client[0]  hdistance[0]  ETV
5	395083467 13254527 1488167 1488167 1 699051 699051 0 3 129942.43844031 389604.9362091
5	408337994 13681281 1488167 1488167 699052 1398102 699051 0 3 30575.118078136 91722.717443183
5	422019275 13981257 1488167 1488167 1398103 2097153 699051 0 3 19607.827095648 58822.964334421
5	436000532 13981342 1488167 1488167 2097154 2796204 699051 0 3 15176.770082879 45529.622802664
5	449981874 13860292 1488167 1488167 2796205 3489213 693009 0 3 12110.917763269 36332.507425268
