version 2
run General-18-20150311-18:59:41-28973
attr D prob_cache
attr F spr
attr R lru
attr a 0.9
attr configname General
attr datetime 20150311-18:59:41
attr experiment General
attr inifile omnetpp.ini
attr iterationvars "$net=abilene, $rep=0, $a=0.9, $F=spr, $ttl=1000, $D=prob_cache, $R=lru"
attr iterationvars2 "$net=abilene, $rep=0, $a=0.9, $F=spr, $ttl=1000, $D=prob_cache, $R=lru, $repetition=0"
attr measurement "$net=abilene, $rep=0, $a=0.9, $F=spr, $ttl=1000, $D=prob_cache, $R=lru"
attr net abilene
attr network networks.${net=abilene}_network
attr processid 28973
attr rep 0
attr repetition 0
attr replication #0
attr resultdir results
attr runnumber 18
attr seedset 0
attr ttl 1000

vector 0  abilene_network.node[0].content_store  hit_node[0]  ETV
0	559358	1	1
0	559358	2	1
0	559358	3	1
0	559358	4	1
0	559358	5	1
0	559358	6	1
0	559358	7	1
0	559358	8	1
0	559358	9	0.92857142857143
0	559358	10	1
0	559358	11	1
0	559358	12	1
0	559358	13	0.85714285714286
0	559358	14	1
0	559358	15	1
0	559358	16	1
0	559358	17	0.8
0	559358	18	0
0	559358	19	0.38461538461538
0	559358	20	1
0	559358	21	1
0	559358	22	1
0	559358	23	0.66666666666667
0	559358	24	0.875
0	559358	25	1
0	559358	26	1
0	559358	27	1
0	559358	28	0.66666666666667
0	559358	29	1
0	559358	30	0.33333333333333
0	559358	31	0.16666666666667
0	559358	32	1
0	559358	33	1
0	559358	34	0.6
0	559358	35	0.5
0	559358	36	0
0	559358	37	0
0	559358	38	0.6
0	559358	39	1
0	559358	40	0.2
0	559358	41	0
0	559358	42	0
0	559358	43	0.75
0	559358	44	0
0	559358	45	0
0	559358	46	0.66666666666667
0	559358	47	0
0	559358	48	0
0	559358	49	0
0	559358	50	0
0	559358	51	0
0	559358	52	0.5
0	559358	53	0.5
0	559358	54	0
0	559358	55	0
0	559358	56	0
0	559358	57	0.33333333333333
0	559358	58	0.875
0	559358	59	0
0	559358	60	0.5
0	559358	61	0
0	559358	62	0.8
0	559358	63	1
0	559358	64	0
0	559358	65	0.33333333333333
0	559358	66	0
0	559358	67	0.5
0	559358	68	0
0	559358	69	0
0	559358	70	0
0	559358	71	0
0	559358	72	0
0	559358	73	1
0	559358	74	1
0	559358	75	0
0	559358	76	0
0	559358	77	0.16666666666667
0	559358	78	0
0	559358	79	-nan
0	559358	80	0
0	559358	81	0
0	559358	82	0
0	559358	83	-nan
0	559358	84	0
0	559358	85	0
0	559358	86	1
0	559358	87	0
0	559358	88	0
0	559358	89	0
0	559358	90	0
0	559358	91	0
0	559358	92	0
0	559358	93	0
0	559358	94	-nan
0	559358	95	0.66666666666667
0	559358	96	0
0	559358	97	0
0	559358	98	0
0	559358	99	0
0	559358	100	0
0	559358	101	0
0	559358	102	-nan
0	559358	103	0
0	559358	104	-nan
0	559358	105	0
0	559358	106	0
0	559358	107	0
0	559358	108	0
0	559358	109	0
0	559358	110	0
0	559358	111	1
0	559358	112	0
0	559358	113	0
0	559358	114	-nan
0	559358	115	0.75
0	559358	116	0
0	559358	117	0
0	559358	118	0
0	559358	119	0.66666666666667
0	559358	120	0
0	559358	121	-nan
0	559358	122	0
0	559358	123	0
0	559358	124	0
0	559358	125	0
0	559358	126	0
0	559358	127	0.33333333333333
0	559358	128	0
0	559358	129	0
0	559358	130	0
0	559358	131	0
0	559358	132	0
0	559358	133	0
0	559358	134	0
0	559358	135	0
0	559358	136	0
0	559358	137	-nan
0	559358	138	0
0	559358	139	0
0	559358	140	0
0	559358	141	0
0	559358	142	0
0	559358	143	0
0	559358	144	-nan
0	559358	145	0
0	559358	146	-nan
0	559358	147	-nan
0	559358	148	0
0	559358	149	0
0	559358	150	0
0	559358	151	0
0	559358	152	-nan
0	559358	153	0
0	559358	154	0
0	559358	155	0
0	559358	156	0
0	559358	157	0
0	559358	158	0
0	559358	159	-nan
0	559358	160	0
0	559358	161	0
0	559358	162	0
0	559358	163	1
0	559358	164	0
0	559358	165	0
0	559358	166	-nan
0	559358	167	0
0	559358	168	0
0	559358	169	0.2
0	559358	170	0
0	559358	171	0
0	559358	172	0
0	559358	173	-nan
0	559358	174	0
0	559358	175	0
0	559358	176	0
0	559358	177	0
0	559358	178	0
0	559358	179	-nan
0	559358	180	-nan
0	559358	181	0
0	559358	182	0
0	559358	183	0
0	559358	184	0
0	559358	185	0
0	559358	186	-nan
0	559358	187	0
0	559358	188	0
0	559358	189	-nan
0	559358	190	0
0	559358	191	-nan
0	559358	192	0
0	559358	193	-nan
0	559358	194	0
0	559358	195	0
0	559358	196	-nan
0	559358	197	0
0	559358	198	0
0	559358	199	-nan
0	559358	200	0
0	559358	201	0
0	559358	202	0
0	559358	203	0
0	559358	204	0
0	559358	205	0
0	559358	206	-nan
0	559358	207	-nan
0	559358	208	0
0	559358	209	0
0	559358	210	-nan
0	559358	211	0
0	559358	212	-nan
0	559358	213	0
0	559358	214	-nan
0	559358	215	0
0	559358	216	-nan
0	559358	217	-nan
0	559358	218	0
0	559358	219	0
0	559358	220	0
0	559358	221	0
0	559358	222	-nan
0	559358	223	0
0	559358	224	-nan
0	559358	225	0
0	559358	226	0
0	559358	227	-nan
0	559358	228	0
0	559358	229	0
0	559358	230	0
0	559358	231	-nan
0	559358	232	0
0	559358	233	-nan
0	559358	234	0.66666666666667
0	559358	235	0
0	559358	236	-nan
0	559358	237	-nan
0	559358	238	0
vector 1  abilene_network.node[1].content_store  hit_node[1]  ETV
1	559358	1	1
1	559358	2	1
1	559358	3	1
1	559358	4	1
1	559358	5	0.75
1	559358	6	1
1	559358	7	0.28571428571429
1	559358	8	0.64285714285714
1	559358	9	0.84210526315789
1	559358	10	0.72222222222222
1	559358	11	0.73684210526316
1	559358	12	0.77777777777778
1	559358	13	0
1	559358	14	0.42857142857143
1	559358	15	0.5
1	559358	16	0
1	559358	17	0.1875
1	559358	18	0.27777777777778
1	559358	19	0.76190476190476
1	559358	20	0.19047619047619
1	559358	21	0.61538461538462
1	559358	22	0.66666666666667
1	559358	23	0.45454545454545
1	559358	24	0.4375
1	559358	25	0
1	559358	26	0.2
1	559358	27	0.11111111111111
1	559358	28	0
1	559358	29	0.30769230769231
1	559358	30	0.33333333333333
1	559358	31	0.6
1	559358	32	0
1	559358	33	0
1	559358	34	0.18181818181818
1	559358	35	0.81818181818182
1	559358	36	0
1	559358	37	0.33333333333333
1	559358	38	0.76923076923077
1	559358	39	0
1	559358	40	0.4
1	559358	41	0
1	559358	42	0.3
1	559358	43	0.6
1	559358	44	0.44444444444444
1	559358	45	0.5
1	559358	46	0.25
1	559358	47	0.125
1	559358	48	0.2
1	559358	49	0.375
1	559358	50	0
1	559358	51	0.5
1	559358	52	0.75
1	559358	53	0.5
1	559358	54	0
1	559358	55	0.28571428571429
1	559358	56	0.28571428571429
1	559358	57	0.77777777777778
1	559358	58	0.25
1	559358	59	0
1	559358	60	0.16666666666667
1	559358	61	0.22222222222222
1	559358	62	0.5
1	559358	63	0
1	559358	64	0
1	559358	65	0.2
1	559358	66	0.25
1	559358	67	0
1	559358	68	0
1	559358	69	0.33333333333333
1	559358	70	0.5
1	559358	71	0
1	559358	72	0
1	559358	73	0
1	559358	74	0
1	559358	75	0.45454545454545
1	559358	76	0.5
1	559358	77	0.33333333333333
1	559358	78	0.375
1	559358	79	0
1	559358	80	0
1	559358	81	0.11111111111111
1	559358	82	0.5
1	559358	83	0.2
1	559358	84	0
1	559358	85	0
1	559358	86	0
1	559358	87	0.14285714285714
1	559358	88	0.11111111111111
1	559358	89	0
1	559358	90	0
1	559358	91	0
1	559358	92	0
1	559358	93	0.28571428571429
1	559358	94	0
1	559358	95	0
1	559358	96	0.4
1	559358	97	0.14285714285714
1	559358	98	0.28571428571429
1	559358	99	0
1	559358	100	0.22222222222222
1	559358	101	0
1	559358	102	0
1	559358	103	0
1	559358	104	0
1	559358	105	0
1	559358	106	0
1	559358	107	0
1	559358	108	0.42857142857143
1	559358	109	0.45454545454545
1	559358	110	0.2
1	559358	111	0
1	559358	112	0.16666666666667
1	559358	113	0
1	559358	114	0
1	559358	115	0
1	559358	116	0
1	559358	117	0
1	559358	118	0
1	559358	119	0
1	559358	120	0
1	559358	121	0
1	559358	122	0
1	559358	123	0
1	559358	124	0
1	559358	125	0
1	559358	126	0
1	559358	127	0
1	559358	128	0
1	559358	129	0
1	559358	130	0
1	559358	131	0.2
1	559358	132	0
1	559358	133	0
1	559358	134	0.4
1	559358	135	0
1	559358	136	0.25
1	559358	137	0
1	559358	138	0
1	559358	139	0
1	559358	140	0
1	559358	141	0
1	559358	142	0
1	559358	143	0.2
1	559358	144	0
1	559358	145	0
1	559358	146	0
1	559358	147	0
1	559358	148	0
1	559358	149	0.2
1	559358	150	0
1	559358	151	0
1	559358	152	0.25
1	559358	153	0
1	559358	154	0
1	559358	155	0
1	559358	156	0
1	559358	157	0
1	559358	158	0
1	559358	159	0
1	559358	160	0
1	559358	161	0.2
1	559358	162	0
1	559358	163	0
1	559358	164	0
1	559358	165	0.71428571428571
1	559358	166	0
1	559358	167	0
1	559358	168	0.4
1	559358	169	0
1	559358	170	0
1	559358	171	0.25
1	559358	172	0
1	559358	173	-nan
1	559358	174	0
1	559358	175	0
1	559358	176	0
1	559358	177	0
1	559358	178	0
1	559358	179	0
1	559358	180	0
1	559358	181	0
1	559358	182	0
1	559358	183	0
1	559358	184	0
1	559358	185	0
1	559358	186	0
1	559358	187	0
1	559358	188	0
1	559358	189	0
1	559358	190	0
1	559358	191	0
1	559358	192	0
1	559358	193	0
1	559358	194	0
1	559358	195	0.5
1	559358	196	0
1	559358	197	0.25
1	559358	198	0
1	559358	199	-nan
1	559358	200	0
1	559358	201	0
1	559358	202	0
1	559358	203	0
1	559358	204	0
1	559358	205	0
1	559358	206	0
1	559358	207	0
1	559358	208	0
1	559358	209	0.25
1	559358	210	-nan
1	559358	211	0
1	559358	212	0
1	559358	213	0
1	559358	214	-nan
1	559358	215	0
1	559358	216	0
1	559358	217	-nan
1	559358	218	0
1	559358	219	0
1	559358	220	0
1	559358	221	0
1	559358	222	0.2
1	559358	223	0
1	559358	224	0
1	559358	225	0
1	559358	226	0
1	559358	227	0
1	559358	228	0
1	559358	229	0
1	559358	230	0
1	559358	231	0.25
1	559358	232	0.5
1	559358	233	0
1	559358	234	0
1	559358	235	0
1	559358	236	0
1	559358	237	0.25
1	559358	238	0
vector 2  abilene_network.node[2].content_store  hit_node[2]  ETV
2	559358	1	1
2	559358	2	1
2	559358	3	0.89189189189189
2	559358	4	0.94285714285714
2	559358	5	0.64516129032258
2	559358	6	0.22222222222222
2	559358	7	0.89189189189189
2	559358	8	0.125
2	559358	9	0.45833333333333
2	559358	10	0.72727272727273
2	559358	11	0.11111111111111
2	559358	12	0.71428571428571
2	559358	13	0.56521739130435
2	559358	14	0.1875
2	559358	15	0.25
2	559358	16	0.25
2	559358	17	0.38095238095238
2	559358	18	0.5
2	559358	19	0.53846153846154
2	559358	20	0.5
2	559358	21	0.15384615384615
2	559358	22	0
2	559358	23	0.64285714285714
2	559358	24	0.33333333333333
2	559358	25	0
2	559358	26	0.84615384615385
2	559358	27	0.125
2	559358	28	0.076923076923077
2	559358	29	0.2
2	559358	30	0.41666666666667
2	559358	31	0
2	559358	32	0.13333333333333
2	559358	33	0
2	559358	34	0
2	559358	35	0
2	559358	36	0.14285714285714
2	559358	37	0
2	559358	38	0
2	559358	39	0
2	559358	40	0.16666666666667
2	559358	41	0.46153846153846
2	559358	42	0.4
2	559358	43	0.4
2	559358	44	0
2	559358	45	0
2	559358	46	0
2	559358	47	0.18181818181818
2	559358	48	0.38461538461538
2	559358	49	0
2	559358	50	0.23076923076923
2	559358	51	0.22222222222222
2	559358	52	0
2	559358	53	0
2	559358	54	0.5625
2	559358	55	0
2	559358	56	0.66666666666667
2	559358	57	0
2	559358	58	0
2	559358	59	0.4
2	559358	60	0.125
2	559358	61	0.38461538461538
2	559358	62	0
2	559358	63	0
2	559358	64	0.33333333333333
2	559358	65	0.33333333333333
2	559358	66	0.4
2	559358	67	0.625
2	559358	68	0.30769230769231
2	559358	69	0
2	559358	70	0
2	559358	71	0.36363636363636
2	559358	72	0
2	559358	73	0
2	559358	74	0
2	559358	75	0.125
2	559358	76	0
2	559358	77	0
2	559358	78	0.125
2	559358	79	0.28571428571429
2	559358	80	0
2	559358	81	0
2	559358	82	0
2	559358	83	0
2	559358	84	0.16666666666667
2	559358	85	0.11111111111111
2	559358	86	0.4
2	559358	87	0
2	559358	88	0.1
2	559358	89	0
2	559358	90	0
2	559358	91	0
2	559358	92	0
2	559358	93	0.25
2	559358	94	0.25
2	559358	95	0.66666666666667
2	559358	96	0.16666666666667
2	559358	97	0
2	559358	98	0
2	559358	99	0
2	559358	100	0
2	559358	101	0
2	559358	102	0
2	559358	103	0.58333333333333
2	559358	104	0.16666666666667
2	559358	105	0
2	559358	106	0
2	559358	107	0.125
2	559358	108	0.33333333333333
2	559358	109	0
2	559358	110	0
2	559358	111	0
2	559358	112	0.16666666666667
2	559358	113	0.375
2	559358	114	0
2	559358	115	0
2	559358	116	0
2	559358	117	0
2	559358	118	0
2	559358	119	0
2	559358	120	0
2	559358	121	0
2	559358	122	0
2	559358	123	0
2	559358	124	0.375
2	559358	125	0
2	559358	126	0
2	559358	127	0.2
2	559358	128	0.2
2	559358	129	0
2	559358	130	0
2	559358	131	0.25
2	559358	132	0.14285714285714
2	559358	133	0
2	559358	134	0
2	559358	135	0
2	559358	136	0.25
2	559358	137	0
2	559358	138	0
2	559358	139	0
2	559358	140	0
2	559358	141	0.57142857142857
2	559358	142	0
2	559358	143	0
2	559358	144	0
2	559358	145	0
2	559358	146	0
2	559358	147	0
2	559358	148	0
2	559358	149	0
2	559358	150	0.16666666666667
2	559358	151	0
2	559358	152	0
2	559358	153	0
2	559358	154	0
2	559358	155	0
2	559358	156	0
2	559358	157	0
2	559358	158	0
2	559358	159	0
2	559358	160	0.33333333333333
2	559358	161	0.25
2	559358	162	0
2	559358	163	0
2	559358	164	0.16666666666667
2	559358	165	0
2	559358	166	0.25
2	559358	167	0.25
2	559358	168	0
2	559358	169	0
2	559358	170	0
2	559358	171	0
2	559358	172	0
2	559358	173	-nan
2	559358	174	0.25
2	559358	175	0
2	559358	176	0.2
2	559358	177	0
2	559358	178	0
2	559358	179	0
2	559358	180	0
2	559358	181	0.33333333333333
2	559358	182	0.16666666666667
2	559358	183	0.25
2	559358	184	0.25
2	559358	185	0
2	559358	186	0
2	559358	187	0.4
2	559358	188	0
2	559358	189	0
2	559358	190	0
2	559358	191	0
2	559358	192	0
2	559358	193	0.5
2	559358	194	0
2	559358	195	0
2	559358	196	0
2	559358	197	0
2	559358	198	0.33333333333333
2	559358	199	0
2	559358	200	0.2
2	559358	201	0
2	559358	202	0
2	559358	203	0
2	559358	204	0
2	559358	205	0
2	559358	206	0
2	559358	207	0
2	559358	208	0.16666666666667
2	559358	209	0
2	559358	210	0
2	559358	211	0
2	559358	212	0
2	559358	213	0
2	559358	214	0
2	559358	215	0.25
2	559358	216	0
2	559358	217	0
2	559358	218	0
2	559358	219	0.33333333333333
2	559358	220	0
2	559358	221	0
2	559358	222	0
2	559358	223	0
2	559358	224	0
2	559358	225	0
2	559358	226	0
2	559358	227	0
2	559358	228	0
2	559358	229	0.28571428571429
2	559358	230	0
2	559358	231	0
2	559358	232	0
2	559358	233	0
2	559358	234	0
2	559358	235	0
2	559358	236	0
2	559358	237	0
2	559358	238	0
vector 3  abilene_network.node[3].content_store  hit_node[3]  ETV
3	559358	1	1
3	559358	2	0.86363636363636
3	559358	3	0.97777777777778
3	559358	4	0.66666666666667
3	559358	5	0.88571428571429
3	559358	6	0.7037037037037
3	559358	7	0.05
3	559358	8	0.44117647058824
3	559358	9	0.24
3	559358	10	0.26086956521739
3	559358	11	0.48
3	559358	12	0.85185185185185
3	559358	13	0.55
3	559358	14	0.55555555555556
3	559358	15	0.47058823529412
3	559358	16	0.5
3	559358	17	0.44444444444444
3	559358	18	0.16666666666667
3	559358	19	0.375
3	559358	20	0.47368421052632
3	559358	21	0.59090909090909
3	559358	22	0.15384615384615
3	559358	23	0.57142857142857
3	559358	24	0.5
3	559358	25	0.42857142857143
3	559358	26	0.090909090909091
3	559358	27	0.21052631578947
3	559358	28	0.4
3	559358	29	0.52941176470588
3	559358	30	0.11111111111111
3	559358	31	0.066666666666667
3	559358	32	0.15789473684211
3	559358	33	0.21428571428571
3	559358	34	0.68181818181818
3	559358	35	0.1
3	559358	36	0.125
3	559358	37	0.26666666666667
3	559358	38	0.3
3	559358	39	0.2
3	559358	40	0.46666666666667
3	559358	41	0.2
3	559358	42	0
3	559358	43	0.3
3	559358	44	0.090909090909091
3	559358	45	0.21428571428571
3	559358	46	0
3	559358	47	0.36363636363636
3	559358	48	0
3	559358	49	0.1
3	559358	50	0.071428571428571
3	559358	51	0.2
3	559358	52	0.4
3	559358	53	0
3	559358	54	0
3	559358	55	0.125
3	559358	56	0.22222222222222
3	559358	57	0.2
3	559358	58	0
3	559358	59	0
3	559358	60	0.25
3	559358	61	0.27272727272727
3	559358	62	0.14285714285714
3	559358	63	0
3	559358	64	0.16666666666667
3	559358	65	0.18181818181818
3	559358	66	0.22222222222222
3	559358	67	0.25
3	559358	68	0.16666666666667
3	559358	69	0.35714285714286
3	559358	70	0.11111111111111
3	559358	71	0.1
3	559358	72	0.5
3	559358	73	0
3	559358	74	0.11111111111111
3	559358	75	0
3	559358	76	0.55555555555556
3	559358	77	0.5
3	559358	78	0.125
3	559358	79	0
3	559358	80	0
3	559358	81	0
3	559358	82	0
3	559358	83	0
3	559358	84	0
3	559358	85	0
3	559358	86	0
3	559358	87	0.14285714285714
3	559358	88	0
3	559358	89	0
3	559358	90	0
3	559358	91	0
3	559358	92	0
3	559358	93	0.25
3	559358	94	0
3	559358	95	0
3	559358	96	0
3	559358	97	0
3	559358	98	0.11111111111111
3	559358	99	0.38461538461538
3	559358	100	0.36363636363636
3	559358	101	0
3	559358	102	0
3	559358	103	0
3	559358	104	0.16666666666667
3	559358	105	0
3	559358	106	0
3	559358	107	0.2
3	559358	108	0
3	559358	109	0
3	559358	110	0
3	559358	111	0
3	559358	112	0.42857142857143
3	559358	113	0
3	559358	114	0.16666666666667
3	559358	115	0.33333333333333
3	559358	116	0.27272727272727
3	559358	117	0.22222222222222
3	559358	118	0.2
3	559358	119	0
3	559358	120	0.44444444444444
3	559358	121	0
3	559358	122	0
3	559358	123	0.14285714285714
3	559358	124	0
3	559358	125	0.41666666666667
3	559358	126	0
3	559358	127	0.33333333333333
3	559358	128	0.125
3	559358	129	0
3	559358	130	0
3	559358	131	0
3	559358	132	0.14285714285714
3	559358	133	0
3	559358	134	0
3	559358	135	0.11111111111111
3	559358	136	0
3	559358	137	0
3	559358	138	0.16666666666667
3	559358	139	0
3	559358	140	0.125
3	559358	141	0
3	559358	142	0.44444444444444
3	559358	143	0
3	559358	144	0.2
3	559358	145	0.2
3	559358	146	0.25
3	559358	147	0
3	559358	148	0
3	559358	149	0
3	559358	150	0
3	559358	151	0
3	559358	152	0
3	559358	153	0
3	559358	154	0.16666666666667
3	559358	155	0
3	559358	156	0
3	559358	157	0
3	559358	158	0
3	559358	159	0
3	559358	160	0
3	559358	161	0
3	559358	162	0
3	559358	163	0
3	559358	164	0.16666666666667
3	559358	165	0
3	559358	166	0.14285714285714
3	559358	167	0
3	559358	168	0
3	559358	169	0
3	559358	170	0
3	559358	171	0
3	559358	172	0
3	559358	173	0
3	559358	174	0
3	559358	175	0
3	559358	176	0
3	559358	177	0.16666666666667
3	559358	178	0
3	559358	179	0
3	559358	180	0
3	559358	181	0
3	559358	182	0
3	559358	183	0
3	559358	184	0
3	559358	185	0
3	559358	186	0
3	559358	187	0
3	559358	188	0
3	559358	189	0
3	559358	190	0
3	559358	191	0
3	559358	192	0
3	559358	193	0
3	559358	194	0.14285714285714
3	559358	195	0
3	559358	196	0
3	559358	197	0.25
3	559358	198	0
3	559358	199	0
3	559358	200	0
3	559358	201	0.28571428571429
3	559358	202	0.33333333333333
3	559358	203	0
3	559358	204	0
3	559358	205	0
3	559358	206	0
3	559358	207	0
3	559358	208	0.4
3	559358	209	0
3	559358	210	0
3	559358	211	0
3	559358	212	0.2
3	559358	213	0
3	559358	214	0
3	559358	215	0.16666666666667
3	559358	216	0
3	559358	217	0
3	559358	218	0.2
3	559358	219	0
3	559358	220	0
3	559358	221	0
3	559358	222	0
3	559358	223	0
3	559358	224	0
3	559358	225	0.14285714285714
3	559358	226	0
3	559358	227	0
3	559358	228	0
3	559358	229	0
3	559358	230	0
3	559358	231	0.4
3	559358	232	0
3	559358	233	0
3	559358	234	0
3	559358	235	0
3	559358	236	0
3	559358	237	0.2
3	559358	238	0.33333333333333
vector 4  abilene_network.node[4].content_store  hit_node[4]  ETV
4	559358	1	1
4	559358	2	0.87931034482759
4	559358	3	0.83720930232558
4	559358	4	0.80851063829787
4	559358	5	0.66666666666667
4	559358	6	0.63636363636364
4	559358	7	0.63157894736842
4	559358	8	0.84615384615385
4	559358	9	0.61111111111111
4	559358	10	0.82758620689655
4	559358	11	0.68965517241379
4	559358	12	0.18181818181818
4	559358	13	0.58333333333333
4	559358	14	0.27272727272727
4	559358	15	0
4	559358	16	0.80952380952381
4	559358	17	0.23529411764706
4	559358	18	0.39130434782609
4	559358	19	0.21428571428571
4	559358	20	0.56521739130435
4	559358	21	0.66666666666667
4	559358	22	0.0625
4	559358	23	0
4	559358	24	0.0625
4	559358	25	0.4
4	559358	26	0
4	559358	27	0.3
4	559358	28	0.625
4	559358	29	0.38461538461538
4	559358	30	0.33333333333333
4	559358	31	0.47368421052632
4	559358	32	0.5
4	559358	33	0.23529411764706
4	559358	34	0
4	559358	35	0.083333333333333
4	559358	36	0.66666666666667
4	559358	37	0.14285714285714
4	559358	38	0
4	559358	39	0
4	559358	40	0
4	559358	41	0.083333333333333
4	559358	42	0.11764705882353
4	559358	43	0.25
4	559358	44	0.071428571428571
4	559358	45	0.26666666666667
4	559358	46	0.61538461538462
4	559358	47	0.35714285714286
4	559358	48	0
4	559358	49	0
4	559358	50	0.29411764705882
4	559358	51	0.1
4	559358	52	0
4	559358	53	0.090909090909091
4	559358	54	0.42857142857143
4	559358	55	0
4	559358	56	0.1
4	559358	57	0
4	559358	58	0.3
4	559358	59	0
4	559358	60	0.33333333333333
4	559358	61	0
4	559358	62	0.38461538461538
4	559358	63	0.4
4	559358	64	0.3
4	559358	65	0.44444444444444
4	559358	66	0.4
4	559358	67	0.1
4	559358	68	0.375
4	559358	69	0
4	559358	70	0.5
4	559358	71	0
4	559358	72	0.2
4	559358	73	0
4	559358	74	0.11111111111111
4	559358	75	0.090909090909091
4	559358	76	0
4	559358	77	0
4	559358	78	0.22222222222222
4	559358	79	0.125
4	559358	80	0.090909090909091
4	559358	81	0.066666666666667
4	559358	82	0
4	559358	83	0
4	559358	84	0.14285714285714
4	559358	85	0.25
4	559358	86	0
4	559358	87	0
4	559358	88	0.3
4	559358	89	0.11111111111111
4	559358	90	0
4	559358	91	0.2
4	559358	92	0
4	559358	93	0.1
4	559358	94	0
4	559358	95	0
4	559358	96	0.2
4	559358	97	0
4	559358	98	0
4	559358	99	0
4	559358	100	0
4	559358	101	0.2
4	559358	102	0
4	559358	103	0.28571428571429
4	559358	104	0
4	559358	105	0.2
4	559358	106	0
4	559358	107	0.125
4	559358	108	0
4	559358	109	0
4	559358	110	0
4	559358	111	0.2
4	559358	112	0
4	559358	113	0.28571428571429
4	559358	114	0
4	559358	115	0
4	559358	116	0
4	559358	117	0
4	559358	118	0.25
4	559358	119	0
4	559358	120	0
4	559358	121	0
4	559358	122	0
4	559358	123	0
4	559358	124	0.125
4	559358	125	0
4	559358	126	0
4	559358	127	0
4	559358	128	0.11111111111111
4	559358	129	0
4	559358	130	0
4	559358	131	0.16666666666667
4	559358	132	0
4	559358	133	0.125
4	559358	134	0.125
4	559358	135	0.22222222222222
4	559358	136	0.14285714285714
4	559358	137	0
4	559358	138	0.2
4	559358	139	0
4	559358	140	0
4	559358	141	0
4	559358	142	0
4	559358	143	0
4	559358	144	0.33333333333333
4	559358	145	0.42857142857143
4	559358	146	0
4	559358	147	0
4	559358	148	0
4	559358	149	0
4	559358	150	0
4	559358	151	0
4	559358	152	0
4	559358	153	0
4	559358	154	0
4	559358	155	0.125
4	559358	156	0
4	559358	157	0.11111111111111
4	559358	158	0
4	559358	159	0
4	559358	160	0
4	559358	161	0.2
4	559358	162	0.2
4	559358	163	0
4	559358	164	0
4	559358	165	0
4	559358	166	0.16666666666667
4	559358	167	0.14285714285714
4	559358	168	0
4	559358	169	0.4
4	559358	170	0
4	559358	171	0.33333333333333
4	559358	172	0
4	559358	173	0
4	559358	174	0
4	559358	175	0.16666666666667
4	559358	176	0
4	559358	177	0
4	559358	178	0
4	559358	179	0.125
4	559358	180	0
4	559358	181	0
4	559358	182	0.54545454545455
4	559358	183	0.16666666666667
4	559358	184	0
4	559358	185	0.125
4	559358	186	0
4	559358	187	0.28571428571429
4	559358	188	0
4	559358	189	0
4	559358	190	0.125
4	559358	191	0
4	559358	192	0
4	559358	193	0
4	559358	194	0
4	559358	195	0
4	559358	196	0
4	559358	197	0
4	559358	198	0.4
4	559358	199	0
4	559358	200	0
4	559358	201	0
4	559358	202	0
4	559358	203	0.4
4	559358	204	0
4	559358	205	0
4	559358	206	0
4	559358	207	0
4	559358	208	0
4	559358	209	0
4	559358	210	0
4	559358	211	0
4	559358	212	0
4	559358	213	0
4	559358	214	0
4	559358	215	0
4	559358	216	0
4	559358	217	0
4	559358	218	0
4	559358	219	0
4	559358	220	0
4	559358	221	0
4	559358	222	0
4	559358	223	0
4	559358	224	0
4	559358	225	0
4	559358	226	0
4	559358	227	0
4	559358	228	0.28571428571429
4	559358	229	0.22222222222222
4	559358	230	0
4	559358	231	0
4	559358	232	0
4	559358	233	0
4	559358	234	0.4
4	559358	235	0
4	559358	236	0.16666666666667
4	559358	237	0
4	559358	238	0
vector 5  abilene_network.node[5].content_store  hit_node[5]  ETV
5	559358	1	1
5	559358	2	1
5	559358	3	0.87037037037037
5	559358	4	0.39024390243902
5	559358	5	0.55555555555556
5	559358	6	0.49090909090909
5	559358	7	0.46875
5	559358	8	0.57142857142857
5	559358	9	0.38888888888889
5	559358	10	0.57142857142857
5	559358	11	0.79166666666667
5	559358	12	0.4
5	559358	13	0.78571428571429
5	559358	14	0.575
5	559358	15	0.1
5	559358	16	0.54166666666667
5	559358	17	0.5
5	559358	18	0.28571428571429
5	559358	19	0.16129032258065
5	559358	20	0.10344827586207
5	559358	21	0
5	559358	22	0.10344827586207
5	559358	23	0.047619047619048
5	559358	24	0.14814814814815
5	559358	25	0.33333333333333
5	559358	26	0.068965517241379
5	559358	27	0.28
5	559358	28	0.3
5	559358	29	0.29411764705882
5	559358	30	0.16
5	559358	31	0.14285714285714
5	559358	32	0.40740740740741
5	559358	33	0.13636363636364
5	559358	34	0.48275862068966
5	559358	35	0.15789473684211
5	559358	36	0.33333333333333
5	559358	37	0.7037037037037
5	559358	38	0.47368421052632
5	559358	39	0.42105263157895
5	559358	40	0.2
5	559358	41	0.53846153846154
5	559358	42	0.24
5	559358	43	0.52
5	559358	44	0.28571428571429
5	559358	45	0
5	559358	46	0.11764705882353
5	559358	47	0.26666666666667
5	559358	48	0.043478260869565
5	559358	49	0.4
5	559358	50	0.045454545454545
5	559358	51	0
5	559358	52	0.15
5	559358	53	0.56521739130435
5	559358	54	0.38888888888889
5	559358	55	0
5	559358	56	0
5	559358	57	0.23076923076923
5	559358	58	0.14285714285714
5	559358	59	0
5	559358	60	0.25
5	559358	61	0.29166666666667
5	559358	62	0.22222222222222
5	559358	63	0.071428571428571
5	559358	64	0
5	559358	65	0
5	559358	66	0
5	559358	67	0
5	559358	68	0.15
5	559358	69	0.35
5	559358	70	0.27272727272727
5	559358	71	0
5	559358	72	0.33333333333333
5	559358	73	0
5	559358	74	0.30434782608696
5	559358	75	0.63157894736842
5	559358	76	0
5	559358	77	0
5	559358	78	0.23076923076923
5	559358	79	0.16666666666667
5	559358	80	0.1304347826087
5	559358	81	0.45833333333333
5	559358	82	0.071428571428571
5	559358	83	0.055555555555556
5	559358	84	0.16666666666667
5	559358	85	0
5	559358	86	0.33333333333333
5	559358	87	0.14285714285714
5	559358	88	0.066666666666667
5	559358	89	0
5	559358	90	0.11764705882353
5	559358	91	0.1875
5	559358	92	0.055555555555556
5	559358	93	0.0625
5	559358	94	0
5	559358	95	0
5	559358	96	0
5	559358	97	0
5	559358	98	0.22222222222222
5	559358	99	0.066666666666667
5	559358	100	0.2
5	559358	101	0
5	559358	102	0.33333333333333
5	559358	103	0
5	559358	104	0
5	559358	105	0.066666666666667
5	559358	106	0.1
5	559358	107	0.57894736842105
5	559358	108	0
5	559358	109	0
5	559358	110	0.21428571428571
5	559358	111	0.30769230769231
5	559358	112	0
5	559358	113	0
5	559358	114	0.38095238095238
5	559358	115	0
5	559358	116	0.1875
5	559358	117	0.14285714285714
5	559358	118	0.090909090909091
5	559358	119	0.125
5	559358	120	0
5	559358	121	0.4375
5	559358	122	0.25
5	559358	123	0.35
5	559358	124	0.071428571428571
5	559358	125	0.26666666666667
5	559358	126	0.33333333333333
5	559358	127	0.15384615384615
5	559358	128	0.066666666666667
5	559358	129	0
5	559358	130	0
5	559358	131	0
5	559358	132	0.0625
5	559358	133	0.14285714285714
5	559358	134	0
5	559358	135	0
5	559358	136	0
5	559358	137	0.11111111111111
5	559358	138	0.25
5	559358	139	0.25
5	559358	140	0
5	559358	141	0.125
5	559358	142	0.071428571428571
5	559358	143	0
5	559358	144	0.21428571428571
5	559358	145	0
5	559358	146	0
5	559358	147	0
5	559358	148	0.1
5	559358	149	0.071428571428571
5	559358	150	0.18181818181818
5	559358	151	0
5	559358	152	0.076923076923077
5	559358	153	0
5	559358	154	0.090909090909091
5	559358	155	0
5	559358	156	0
5	559358	157	0
5	559358	158	0.18181818181818
5	559358	159	0
5	559358	160	0
5	559358	161	0
5	559358	162	0
5	559358	163	0
5	559358	164	0.125
5	559358	165	0
5	559358	166	0
5	559358	167	0
5	559358	168	0.33333333333333
5	559358	169	0.25
5	559358	170	0
5	559358	171	0
5	559358	172	0
5	559358	173	0
5	559358	174	0
5	559358	175	0.22222222222222
5	559358	176	0
5	559358	177	0.25
5	559358	178	0
5	559358	179	0.18181818181818
5	559358	180	0.11111111111111
5	559358	181	0
5	559358	182	0.18181818181818
5	559358	183	0.18181818181818
5	559358	184	0
5	559358	185	0
5	559358	186	0.27272727272727
5	559358	187	0.066666666666667
5	559358	188	0
5	559358	189	0
5	559358	190	0
5	559358	191	0
5	559358	192	0.076923076923077
5	559358	193	0.125
5	559358	194	0
5	559358	195	0
5	559358	196	0.16666666666667
5	559358	197	0
5	559358	198	0
5	559358	199	0
5	559358	200	0
5	559358	201	0
5	559358	202	0.22222222222222
5	559358	203	0
5	559358	204	0
5	559358	205	0
5	559358	206	0
5	559358	207	0.125
5	559358	208	0
5	559358	209	0.11111111111111
5	559358	210	0
5	559358	211	0.090909090909091
5	559358	212	0.4
5	559358	213	0
5	559358	214	0.16666666666667
5	559358	215	0
5	559358	216	0.1
5	559358	217	0
5	559358	218	0
5	559358	219	0
5	559358	220	0
5	559358	221	0
5	559358	222	0
5	559358	223	0.15384615384615
5	559358	224	0
5	559358	225	0.083333333333333
5	559358	226	0.14285714285714
5	559358	227	0
5	559358	228	0
5	559358	229	0.13333333333333
5	559358	230	0
5	559358	231	0.25
5	559358	232	0
5	559358	233	0.125
5	559358	234	0
5	559358	235	0
5	559358	236	0
5	559358	237	0
5	559358	238	0
vector 6  abilene_network.node[6].content_store  hit_node[6]  ETV
6	559358	1	1
6	559358	2	1
6	559358	3	0.74358974358974
6	559358	4	0.90909090909091
6	559358	5	0.5
6	559358	6	0.25
6	559358	7	1
6	559358	8	0.85714285714286
6	559358	9	0.45
6	559358	10	0.85714285714286
6	559358	11	0.76190476190476
6	559358	12	0.58823529411765
6	559358	13	0.31818181818182
6	559358	14	0.11764705882353
6	559358	15	0.22222222222222
6	559358	16	0.3
6	559358	17	0.4
6	559358	18	0.63157894736842
6	559358	19	0.18181818181818
6	559358	20	0.066666666666667
6	559358	21	0.77777777777778
6	559358	22	0.15384615384615
6	559358	23	0.25
6	559358	24	0.375
6	559358	25	0.22222222222222
6	559358	26	0
6	559358	27	0
6	559358	28	0.70588235294118
6	559358	29	0.6
6	559358	30	0
6	559358	31	0.35294117647059
6	559358	32	0.30769230769231
6	559358	33	0.25
6	559358	34	0.36363636363636
6	559358	35	0.44444444444444
6	559358	36	0.22222222222222
6	559358	37	0
6	559358	38	0.27272727272727
6	559358	39	0.44444444444444
6	559358	40	0.36363636363636
6	559358	41	0
6	559358	42	0.28571428571429
6	559358	43	0
6	559358	44	0.22222222222222
6	559358	45	0.5
6	559358	46	0.30769230769231
6	559358	47	0
6	559358	48	0
6	559358	49	0.27272727272727
6	559358	50	0.71428571428571
6	559358	51	0
6	559358	52	0.5
6	559358	53	0.22222222222222
6	559358	54	0
6	559358	55	0
6	559358	56	0
6	559358	57	0.18181818181818
6	559358	58	0.44444444444444
6	559358	59	0.53846153846154
6	559358	60	0.3
6	559358	61	0
6	559358	62	0
6	559358	63	0.4
6	559358	64	0.625
6	559358	65	0
6	559358	66	0.14285714285714
6	559358	67	0.57142857142857
6	559358	68	0
6	559358	69	0.11111111111111
6	559358	70	0
6	559358	71	0.33333333333333
6	559358	72	0.28571428571429
6	559358	73	0
6	559358	74	0
6	559358	75	0.11111111111111
6	559358	76	0.2
6	559358	77	0
6	559358	78	0.4
6	559358	79	0.33333333333333
6	559358	80	0
6	559358	81	0.090909090909091
6	559358	82	0.33333333333333
6	559358	83	0
6	559358	84	0
6	559358	85	0
6	559358	86	0
6	559358	87	0
6	559358	88	0.33333333333333
6	559358	89	0.18181818181818
6	559358	90	0
6	559358	91	0.25
6	559358	92	0
6	559358	93	0.33333333333333
6	559358	94	0.28571428571429
6	559358	95	0.5
6	559358	96	0
6	559358	97	0
6	559358	98	0
6	559358	99	0
6	559358	100	0
6	559358	101	0
6	559358	102	0
6	559358	103	0.42857142857143
6	559358	104	0