version 2
run General-1-20150629-10:21:05-17711
attr D lce
attr F spr
attr R lru_repr
attr a 1
attr configname General
attr datetime 20150629-10:21:05
attr experiment General
attr inifile omnetpp.ini
attr iterationvars "$net=video_simple_scenario, $rep=0, $a=1, $F=spr, $ttl=1000, $D=lce, $R=lru_repr, $window=60, $variance=0.05, $mytime=1800000"
attr iterationvars2 "$net=video_simple_scenario, $rep=0, $a=1, $F=spr, $ttl=1000, $D=lce, $R=lru_repr, $window=60, $variance=0.05, $mytime=1800000, $repetition=0"
attr measurement "$net=video_simple_scenario, $rep=0, $a=1, $F=spr, $ttl=1000, $D=lce, $R=lru_repr, $window=60, $variance=0.05, $mytime=1800000"
attr mytime 1800000
attr net video_simple_scenario
attr network networks.${net=video_simple_scenario}_network
attr processid 17711
attr rep 0
attr repetition 0
attr replication #0
attr resultdir results
attr runnumber 1
attr seedset 0
attr ttl 1000
attr variance 0.05
attr window 60

vector 0  video_simple_scenario_network.node[0].content_store  hit_node[0]  ETV
0	584449326	1	0.9806955196437
0	584449326	2	0.84486372301282
0	584449326	3	0.69719394758338
0	584449326	4	0.58764016801759
0	584449326	5	0.50907509293387
0	584449326	6	0.45118823735005
0	584449326	7	0.40734285291014
0	584449326	8	0.37154870711495
0	584449326	9	0.34200165557991
0	584449326	10	0.31825201454852
0	584449326	11	0.29752191848107
0	584449326	12	0.28020974046047
0	584449326	13	0.26393751450111
0	584449326	14	0.2503828407345
0	584449326	15	0.23742568880952
0	584449326	16	0.22711921221127
0	584449326	17	0.21666554688821
0	584449326	18	0.20693295489945
0	584449326	19	0.19897882171871
0	584449326	20	0.19157348198553
0	584449326	21	0.18368755754699
0	584449326	22	0.17714942396526
0	584449326	23	0.17161988902656
0	584449326	24	0.16617950965788
0	584449326	25	0.15975852376648
0	584449326	26	0.1556400232662
0	584449326	27	0.15081206198986
0	584449326	28	0.1465977612419
0	584449326	29	0.14286148977605
0	584449326	30	0.13799302027985
0	584449326	31	0.13431771742211
0	584449326	32	0.13179159226798
0	584449326	33	0.1277084758847
0	584449326	34	0.12443750392055
0	584449326	35	0.12189938021584
0	584449326	36	0.11883840811872
0	584449326	37	0.115669537369
0	584449326	38	0.11341205778098
0	584449326	39	0.11144227278806
0	584449326	40	0.10931469268078
0	584449326	41	0.10705380306277
0	584449326	42	0.10448055206506
0	584449326	43	0.10214199575046
0	584449326	44	0.10090891342545
0	584449326	45	0.098636359579842
0	584449326	46	0.096813725490196
0	584449326	47	0.095345084090235
0	584449326	48	0.093059673744125
0	584449326	49	0.092468787756746
0	584449326	50	0.09039422404317
0	584449326	51	0.0883747898775
0	584449326	52	0.087657493692441
0	584449326	53	0.086083693807805
0	584449326	54	0.084127001315711
0	584449326	55	0.083702865699414
0	584449326	56	0.08084008905418
0	584449326	57	0.079507388312693
0	584449326	58	0.078409941082951
0	584449326	59	0.078228854715292
0	584449326	60	0.07730543629437
0	584449326	61	0.075445359662017
0	584449326	62	0.074304930344029
0	584449326	63	0.073091574317029
0	584449326	64	0.071615638125169
0	584449326	65	0.070891273422209
0	584449326	66	0.0704477331391
0	584449326	67	0.069793114727288
0	584449326	68	0.068355331598356
0	584449326	69	0.067972536633064
0	584449326	70	0.066450018014419
0	584449326	71	0.065886451472429
0	584449326	72	0.065235063248769
0	584449326	73	0.064762025344738
0	584449326	74	0.063538067527429
0	584449326	75	0.062915306318418
0	584449326	76	0.061306689563656
