version 2
run General-6-20140103-22:18:19-32212
attr D lce
attr F spr
attr R lru
attr a 1
attr configname General
attr csize 10^4
attr datetime 20140103-22:18:19
attr experiment General
attr inifile omnetpp.ini
attr iterationvars "$net=simple_scenario_cache_in_the_core, $rep=0, $a=1, $F=spr, $ttl=1000, $D=lce, $R=lru, $csize=10^4"
attr iterationvars2 "$net=simple_scenario_cache_in_the_core, $rep=0, $a=1, $F=spr, $ttl=1000, $D=lce, $R=lru, $csize=10^4, $repetition=0"
attr measurement "$net=simple_scenario_cache_in_the_core, $rep=0, $a=1, $F=spr, $ttl=1000, $D=lce, $R=lru, $csize=10^4"
attr net simple_scenario_cache_in_the_core
attr network networks.${net=simple_scenario_cache_in_the_core,simple_scenario_cache_at_border}_network
attr processid 32212
attr rep 0
attr repetition 0
attr replication #0
attr resultdir results
attr runnumber 6
attr seedset 0
attr ttl 1000

vector 36  simple_scenario_cache_in_the_core_network.node[0].content_store  hit_node[0]  ETV
36	988632	1	1
36	988632	2	1
36	988632	3	1
36	988632	4	1
36	988632	5	1
36	988632	6	1
36	988632	7	1
36	988632	8	1
36	988632	9	1
36	988632	10	1
36	988632	11	1
36	988632	12	1
36	988632	13	1
36	988632	14	1
36	988632	15	1
36	988632	16	1
36	988632	17	1
36	988632	18	1
36	988632	19	1
36	988632	20	1
36	988632	21	1
36	988632	22	1
36	988632	23	1
36	988632	24	1
36	988632	25	1
36	988632	26	1
36	988632	27	1
36	988632	28	1
36	988632	29	1
36	988632	30	1
36	988632	31	1
36	988632	32	1
36	988632	33	1
36	988632	34	1
36	988632	35	1
36	988632	36	1
36	988632	37	1
36	988632	38	1
36	988632	39	1
36	988632	40	1
36	988632	41	1
36	988632	42	1
36	988632	43	1
36	988632	44	1
36	988632	45	1
36	988632	46	1
36	988632	47	1
36	988632	48	1
36	988632	49	1
36	988632	50	1
36	988632	51	1
36	988632	52	1
36	988632	53	1
36	988632	54	1
36	988632	55	1
36	988632	56	1
36	988632	57	1
36	988632	58	1
36	988632	59	1
36	988632	60	1
36	988632	61	1
36	988632	62	1
36	988632	63	1
36	988632	64	1
36	988632	65	1
36	988632	66	1
36	988632	67	1
36	988632	68	1
36	988632	69	1
36	988632	70	1
36	988632	71	1
36	988632	72	1
36	988632	73	1
36	988632	74	1
36	988632	75	1
36	988632	76	1
36	988632	77	1
36	988632	78	1
36	988632	79	1
36	988632	80	1
36	988632	81	1
36	988632	82	1
36	988632	83	1
36	988632	84	1
36	988632	85	1
36	988632	86	1
36	988632	87	1
36	988632	88	1
36	988632	89	1
36	988632	90	1
36	988632	91	1
36	988632	92	1
36	988632	93	1
36	988632	94	1
36	988632	95	1
36	988632	96	1
36	988632	97	1
36	988632	98	1
36	988632	99	1
36	988632	100	1
36	988632	101	1
36	988632	102	1
36	988632	103	1
36	988632	104	1
36	988632	105	1
36	988632	106	1
36	988632	107	1
36	988632	108	1
36	988632	109	1
36	988632	110	1
36	988632	111	1
36	988632	112	1
36	988632	113	1
36	988632	114	1
36	988632	115	1
36	988632	116	1
36	988632	117	1
36	988632	118	1
36	988632	119	1
36	988632	120	1
36	988632	121	1
36	988632	122	1
36	988632	123	1
36	988632	124	1
36	988632	125	1
36	988632	126	1
36	988632	127	1
36	988632	128	1
36	988632	129	1
36	988632	130	1
36	988632	131	1
36	988632	132	1
36	988632	133	1
36	988632	134	1
36	988632	135	1
36	988632	136	1
36	988632	137	1
36	988632	138	1
36	988632	139	1
36	988632	140	1
36	988632	141	1
36	988632	142	1
36	988632	143	1
36	988632	144	1
36	988632	145	1
36	988632	146	1
36	988632	147	1
36	988632	148	1
36	988632	149	1
36	988632	150	1
36	988632	151	1
36	988632	152	1
36	988632	153	1
36	988632	154	1
36	988632	155	1
36	988632	156	1
36	988632	157	1
36	988632	158	1
36	988632	159	1
36	988632	160	1
36	988632	161	1
36	988632	162	1
36	988632	163	1
36	988632	164	1
36	988632	165	1
36	988632	166	1
36	988632	167	1
36	988632	168	1
36	988632	169	1
36	988632	170	1
36	988632	171	1
36	988632	172	1
36	988632	173	1
36	988632	174	1
36	988632	175	1
36	988632	176	1
36	988632	177	1
36	988632	178	1
36	988632	179	1
36	988632	180	1
36	988632	181	1
36	988632	182	1
36	988632	183	1
36	988632	184	1
36	988632	185	1
36	988632	186	1
36	988632	187	1
36	988632	188	1
36	988632	189	1
36	988632	190	1
36	988632	191	1
36	988632	192	1
36	988632	193	1
36	988632	194	1
36	988632	195	1
36	988632	196	1
36	988632	197	1
36	988632	198	1
36	988632	199	1
36	988632	200	1
36	988632	201	1
36	988632	202	1
36	988632	203	1
36	988632	204	0.98076923076923
36	988632	205	1
36	988632	206	1
36	988632	207	1
36	988632	208	1
36	988632	209	1
36	988632	210	1
36	988632	211	1
36	988632	212	1
36	988632	213	1
36	988632	214	1
36	988632	215	1
36	988632	216	1
36	988632	217	1
36	988632	218	1
36	988632	219	1
36	988632	220	1
36	988632	221	1
36	988632	222	1
36	988632	223	1
36	988632	224	0.98245614035088
36	988632	225	1
36	988632	226	1
36	988632	227	1
36	988632	228	1
36	988632	229	1
36	988632	230	1
36	988632	231	1
36	988632	232	1
36	988632	233	1
36	988632	234	1
36	988632	235	0.97222222222222
36	988632	236	1
36	988632	237	1
36	988632	238	0.98245614035088
36	988632	239	1
36	988632	240	1
36	988632	241	1
36	988632	242	1
36	988632	243	1
36	988632	244	1
36	988632	245	1
36	988632	246	1
36	988632	247	1
36	988632	248	0.98181818181818
36	988632	249	1
36	988632	250	0.97872340425532
36	988632	251	1
36	988632	252	1
36	988632	253	1
36	988632	254	1
36	988632	255	1
36	988632	256	1
36	988632	257	1
36	988632	258	1
36	988632	259	1
36	988632	260	1
36	988632	261	1
36	988632	262	1
36	988632	263	1
36	988632	264	1
36	988632	265	1
36	988632	266	1
36	988632	267	1
36	988632	268	1
36	988632	269	1
36	988632	270	1
36	988632	271	1
36	988632	272	1
36	988632	273	0.97297297297297
36	988632	274	1
36	988632	275	1
36	988632	276	1
36	988632	277	1
36	988632	278	0.97435897435897
36	988632	279	1
36	988632	280	0.97619047619048
36	988632	281	1
36	988632	282	1
36	988632	283	1
36	988632	284	1
36	988632	285	1
36	988632	286	1
36	988632	287	1
36	988632	288	1
36	988632	289	1
36	988632	290	1
36	988632	291	0.96666666666667
36	988632	292	1
36	988632	293	1
36	988632	294	1
36	988632	295	1
36	988632	296	1
36	988632	297	1
36	988632	298	1
36	988632	299	1
36	988632	300	0.96969696969697
36	988632	301	1
36	988632	302	1
36	988632	303	0.97619047619048
36	988632	304	1
36	988632	305	0.97368421052632
36	988632	306	1
36	988632	307	1
36	988632	308	0.97368421052632
36	988632	309	1
36	988632	310	0.97222222222222
36	988632	311	1
36	988632	312	1
36	988632	313	1
36	988632	314	0.97619047619048
36	988632	315	1
36	988632	316	1
36	988632	317	0.97222222222222
36	988632	318	1
36	988632	319	0.97674418604651
36	988632	320	0.94871794871795
36	988632	321	0.97368421052632
36	988632	322	1
36	988632	323	1
36	988632	324	0.96969696969697
36	988632	325	1
36	988632	326	1
36	988632	327	0.96666666666667
36	988632	328	1
36	988632	329	0.97142857142857
36	988632	330	0.97297297297297
36	988632	331	0.96
36	988632	332	0.97619047619048
36	988632	333	1
36	988632	334	1
36	988632	335	0.9375
36	988632	336	0.975
36	988632	337	1
36	988632	338	1
36	988632	339	0.97727272727273
36	988632	340	0.97619047619048
36	988632	341	1
36	988632	342	0.96969696969697
36	988632	343	1
36	988632	344	0.93548387096774
36	988632	345	1
36	988632	346	1
36	988632	347	0.97619047619048
36	988632	348	0.97435897435897
36	988632	349	0.96875
36	988632	350	1
36	988632	351	0.96
36	988632	352	1
36	988632	353	1
36	988632	354	1
36	988632	355	1
36	988632	356	1
36	988632	357	0.96875
36	988632	358	1
36	988632	359	0.96969696969697
36	988632	360	0.97058823529412
36	988632	361	1
36	988632	362	1
36	988632	363	1
36	988632	364	0.92857142857143
36	988632	365	1
36	988632	366	1
36	988632	367	0.97058823529412
36	988632	368	1
36	988632	369	1
36	988632	370	0.96666666666667
36	988632	371	0.97297297297297
36	988632	372	0.97297297297297
36	988632	373	0.96
36	988632	374	0.96969696969697
36	988632	375	0.96
36	988632	376	0.96296296296296
36	988632	377	1
36	988632	378	0.97142857142857
36	988632	379	1
36	988632	380	0.92
36	988632	381	0.97222222222222
36	988632	382	0.90322580645161
36	988632	383	1
36	988632	384	0.96969696969697
36	988632	385	0.92
36	988632	386	0.96969696969697
36	988632	387	1
36	988632	388	0.8125
36	988632	389	1
36	988632	390	0.93103448275862
36	988632	391	1
36	988632	392	1
36	988632	393	0.96296296296296
36	988632	394	0.96875
36	988632	395	1
36	988632	396	0.96969696969697
36	988632	397	1
36	988632	398	0.96774193548387
36	988632	399	0.97297297297297
36	988632	400	1
36	988632	401	0.96875
36	988632	402	0.97435897435897
36	988632	403	0.97058823529412
36	988632	404	0.84
36	988632	405	1
36	988632	406	1
36	988632	407	1
36	988632	408	0.96875
36	988632	409	0.96774193548387
36	988632	410	1
36	988632	411	1
36	988632	412	1
36	988632	413	1
36	988632	414	0.96774193548387
36	988632	415	1
36	988632	416	0.97142857142857
36	988632	417	0.85714285714286
36	988632	418	0.92592592592593
36	988632	419	0.95652173913043
36	988632	420	1
36	988632	421	1
36	988632	422	0.96551724137931
36	988632	423	1
36	988632	424	0.94285714285714
36	988632	425	0.94444444444444
36	988632	426	0.96875
36	988632	427	1
36	988632	428	1
36	988632	429	0.96774193548387
36	988632	430	0.96774193548387
36	988632	431	0.88
36	988632	432	0.96296296296296
36	988632	433	0.97435897435897
36	988632	434	0.92857142857143
36	988632	435	1
36	988632	436	0.875
36	988632	437	1
36	988632	438	1
36	988632	439	1
36	988632	440	0.91304347826087
36	988632	441	1
36	988632	442	1
36	988632	443	0.95833333333333
36	988632	444	0.90909090909091
36	988632	445	0.96
36	988632	446	1
36	988632	447	0.97142857142857
36	988632	448	0.96875
36	988632	449	0.93939393939394
36	988632	450	0.93939393939394
36	988632	451	0.90909090909091
36	988632	452	1
36	988632	453	0.95833333333333
36	988632	454	0.96296296296296
36	988632	455	0.91666666666667
36	988632	456	1
36	988632	457	1
36	988632	458	0.96428571428571
36	988632	459	1
36	988632	460	1
36	988632	461	0.89473684210526
36	988632	462	0.92
36	988632	463	0.95652173913043
36	988632	464	0.96428571428571
36	988632	465	0.96774193548387
36	988632	466	0.95238095238095
36	988632	467	0.96153846153846
36	988632	468	0.96551724137931
36	988632	469	1
36	988632	470	0.90909090909091
36	988632	471	0.96551724137931
36	988632	472	0.92857142857143
36	988632	473	1
36	988632	474	0.96153846153846
36	988632	475	0.90909090909091
36	988632	476	0.86363636363636
36	988632	477	0.88888888888889
36	988632	478	1
36	988632	479	0.875
36	988632	480	0.89655172413793
36	988632	481	0.96666666666667
36	988632	482	0.70588235294118
36	988632	483	0.90909090909091
36	988632	484	0.96774193548387
36	988632	485	0.91666666666667
36	988632	486	0.96969696969697
36	988632	487	0.86666666666667
36	988632	488	1
36	988632	489	0.90909090909091
36	988632	490	0.96296296296296
36	988632	491	0.96969696969697
36	988632	492	0.96296296296296
36	988632	493	0.97142857142857
36	988632	494	0.96
36	988632	495	1
36	988632	496	0.96551724137931
36	988632	497	0.91666666666667
36	988632	498	0.86363636363636
36	988632	499	1
36	988632	500	0.92307692307692
36	988632	501	0.95454545454545
36	988632	502	0.90909090909091
36	988632	503	0.95833333333333
36	988632	504	0.88235294117647
36	988632	505	0.85
36	988632	506	0.96296296296296
36	988632	507	0.96666666666667
36	988632	508	0.82352941176471
36	988632	509	1
36	988632	510	1
36	988632	511	0.89473684210526
36	988632	512	0.88888888888889
36	988632	513	0.9047619047619
36	988632	514	0.96153846153846
36	988632	515	1
36	988632	516	1
36	988632	517	0.86363636363636
36	988632	518	0.96153846153846
36	988632	519	0.8125
36	988632	520	0.96296296296296
36	988632	521	0.91304347826087
36	988632	522	0.92857142857143
36	988632	523	0.9047619047619
36	988632	524	0.88
36	988632	525	0.95238095238095
36	988632	526	1
36	988632	527	0.96428571428571
36	988632	528	0.9047619047619
36	988632	529	0.95238095238095
36	988632	530	1
36	988632	531	0.89473684210526
36	988632	532	0.93333333333333
36	988632	533	1
36	988632	534	0.96428571428571
36	988632	535	0.9047619047619
36	988632	536	1
36	988632	537	0.875
36	988632	538	0.89473684210526
36	988632	539	0.85714285714286
36	988632	540	0.8695652173913
36	988632	541	0.95238095238095
36	988632	542	1
36	988632	543	0.96969696969697
36	988632	544	0.96
36	988632	545	0.96428571428571
36	988632	546	0.88888888888889
36	988632	547	0.875
36	988632	548	0.96428571428571
36	988632	549	0.9
36	988632	550	0.94736842105263
36	988632	551	0.96428571428571
36	988632	552	0.88888888888889
36	988632	553	1
36	988632	554	0.8695652173913
36	988632	555	0.77777777777778
36	988632	556	0.95454545454545
36	988632	557	0.86363636363636
36	988632	558	0.875
36	988632	559	0.9
36	988632	560	0.875
36	988632	561	0.94736842105263
36	988632	562	0.96
36	988632	563	0.96774193548387
36	988632	564	0.96296296296296
36	988632	565	0.94117647058824
36	988632	566	0.90909090909091
36	988632	567	0.96
36	988632	568	0.95
36	988632	569	0.88888888888889
36	988632	570	0.94736842105263
36	988632	571	1
36	988632	572	0.8
36	988632	573	0.96153846153846
36	988632	574	0.88235294117647
36	988632	575	0.93333333333333
36	988632	576	0.83333333333333
36	988632	577	0.90909090909091
36	988632	578	0.91666666666667
36	988632	579	0.92
36	988632	580	0.9047619047619
36	988632	581	1
36	988632	582	0.85714285714286
36	988632	583	0.92307692307692
36	988632	584	0.95238095238095
36	988632	585	0.8695652173913
36	988632	586	0.82352941176471
36	988632	587	1
36	988632	588	0.91666666666667
36	988632	589	0.91304347826087
36	988632	590	0.95833333333333
36	988632	591	0.95238095238095
36	988632	592	0.875
36	988632	593	0.84210526315789
36	988632	594	0.96153846153846
36	988632	595	0.95652173913043
36	988632	596	1
36	988632	597	0.86363636363636
36	988632	598	1
36	988632	599	0.96774193548387
36	988632	600	0.90909090909091
36	988632	601	0.88235294117647
36	988632	602	0.89473684210526
36	988632	603	0.91304347826087
36	988632	604	0.78571428571429
36	988632	605	0.88235294117647
36	988632	606	0.94444444444444
36	988632	607	0.83333333333333
36	988632	608	0.93333333333333
36	988632	609	0.95833333333333
36	988632	610	0.8
36	988632	611	0.82352941176471
36	988632	612	0.94736842105263
36	988632	613	0.85714285714286
36	988632	614	0.875
36	988632	615	0.82352941176471
36	988632	616	0.88888888888889
36	988632	617	1
36	988632	618	0.77777777777778
36	988632	619	0.96
36	988632	620	0.92
36	988632	621	0.84210526315789
36	988632	622	1
36	988632	623	0.84615384615385
36	988632	624	0.88235294117647
36	988632	625	0.85714285714286
36	988632	626	0.94117647058824
36	988632	627	0.95
36	988632	628	1
36	988632	629	0.9047619047619
36	988632	630	0.94736842105263
36	988632	631	0.94117647058824
36	988632	632	0.89473684210526
36	988632	633	0.82352941176471
36	988632	634	0.95833333333333
36	988632	635	0.95833333333333
36	988632	636	0.95238095238095
36	988632	637	0.96428571428571
36	988632	638	0.95833333333333
36	988632	639	0.76470588235294
36	988632	640	0.86363636363636
36	988632	641	0.94444444444444
36	988632	642	0.94444444444444
36	988632	643	0.75
36	988632	644	0.82352941176471
36	988632	645	0.77777777777778
36	988632	646	0.71428571428571
36	988632	647	0.9047619047619
36	988632	648	0.8125
36	988632	649	0.91304347826087
36	988632	650	0.78947368421053
36	988632	651	0.78571428571429
36	988632	652	0.76923076923077
36	988632	653	0.85714285714286
36	988632	654	0.9047619047619
36	988632	655	0.90909090909091
36	988632	656	0.875
36	988632	657	0.96153846153846
36	988632	658	0.95
36	988632	659	0.9047619047619
36	988632	660	0.92
36	988632	661	0.69230769230769
36	988632	662	0.875
36	988632	663	0.84615384615385
36	988632	664	0.8125
36	988632	665	0.85714285714286
36	988632	666	0.92307692307692
36	988632	667	0.95454545454545
36	988632	668	0.76470588235294
36	988632	669	0.89473684210526
36	988632	670	0.95454545454545
36	988632	671	0.95833333333333
36	988632	672	0.95454545454545
36	988632	673	0.92307692307692
36	988632	674	0.92307692307692
36	988632	675	0.86363636363636
36	988632	676	0.86363636363636
36	988632	677	0.95454545454545
36	988632	678	0.8125
36	988632	679	0.96428571428571
36	988632	680	0.82352941176471
36	988632	681	0.84210526315789
36	988632	682	1
36	988632	683	0.6
36	988632	684	0.84210526315789
36	988632	685	0.94117647058824
36	988632	686	0.8125
36	988632	687	0.95652173913043
36	988632	688	0.89473684210526
36	988632	689	0.78571428571429
36	988632	690	0.94117647058824
36	988632	691	0.9
36	988632	692	0.77777777777778
36	988632	693	0.85
36	988632	694	0.95238095238095
36	988632	695	0.91304347826087
36	988632	696	0.55555555555556
36	988632	697	0.9047619047619
36	988632	698	0.90909090909091
36	988632	699	0.90909090909091
36	988632	700	0.78947368421053
36	988632	701	0.92
36	988632	702	0.94444444444444
36	988632	703	0.83333333333333
36	988632	704	0.83333333333333
36	988632	705	0.96296296296296
36	988632	706	0.88235294117647
36	988632	707	0.95454545454545
36	988632	708	0.94444444444444
36	988632	709	0.875
36	988632	710	0.76470588235294
36	988632	711	0.83333333333333
36	988632	712	0.88888888888889
36	988632	713	0.88235294117647
36	988632	714	0.875
36	988632	715	0.83333333333333
36	988632	716	1
36	988632	717	0.8
36	988632	718	0.63636363636364
36	988632	719	0.90909090909091
36	988632	720	0.66666666666667
36	988632	721	0.75
36	988632	722	0.76470588235294
36	988632	723	0.78571428571429
36	988632	724	0.94117647058824
36	988632	725	0.88888888888889
36	988632	726	0.88235294117647
36	988632	727	0.88235294117647
36	988632	728	0.54545454545455
36	988632	729	0.85714285714286
36	988632	730	0.89473684210526
36	988632	731	0.76923076923077
36	988632	732	0.88235294117647
36	988632	733	0.82352941176471
36	988632	734	0.81818181818182
36	988632	735	1
36	988632	736	0.92
36	988632	737	0.875
36	988632	738	0.875
36	988632	739	0.9047619047619
36	988632	740	0.71428571428571
36	988632	741	0.88235294117647
36	988632	742	0.8
36	988632	743	0.9
36	988632	744	0.71428571428571
36	988632	745	0.89473684210526
36	988632	746	0.78571428571429
36	988632	747	0.85
36	988632	748	0.95238095238095
36	988632	749	0.91666666666667
36	988632	750	0.73333333333333
vector 37  simple_scenario_cache_in_the_core_network.node[1].content_store  hit_node[1]  ETV
37	988632	1	-nan
37	988632	2	-nan
37	988632	3	-nan
37	988632	4	-nan
37	988632	5	-nan
37	988632	6	-nan
37	988632	7	-nan
37	988632	8	-nan
37	988632	9	-nan
37	988632	10	-nan
37	988632	11	-nan
37	988632	12	-nan
37	988632	13	-nan
37	988632	14	-nan
37	988632	15	-nan
37	988632	16	-nan
37	988632	17	-nan
37	988632	18	-nan
37	988632	19	-nan
37	988632	20	-nan
37	988632	21	-nan
37	988632	22	-nan
37	988632	23	-nan
37	988632	24	-nan
37	988632	25	-nan
37	988632	26	-nan
37	988632	27	-nan
37	988632	28	-nan
37	988632	29	-nan
37	988632	30	-nan
37	988632	31	-nan
37	988632	32	-nan
37	988632	33	-nan
37	988632	34	-nan
37	988632	35	-nan
37	988632	36	-nan
37	988632	37	-nan
37	988632	38	-nan
37	988632	39	-nan
37	988632	40	-nan
37	988632	41	-nan
37	988632	42	-nan
37	988632	43	-nan
37	988632	44	-nan
37	988632	45	-nan
37	988632	46	-nan
37	988632	47	-nan
37	988632	48	-nan
37	988632	49	-nan
37	988632	50	-nan
37	988632	51	-nan
37	988632	52	-nan
37	988632	53	-nan
37	988632	54	-nan
37	988632	55	-nan
37	988632	56	-nan
37	988632	57	-nan
37	988632	58	-nan
37	988632	59	-nan
37	988632	60	-nan
37	988632	61	-nan
37	988632	62	-nan
37	988632	63	-nan
37	988632	64	-nan
37	988632	65	-nan
37	988632	66	-nan
37	988632	67	-nan
37	988632	68	-nan
37	988632	69	-nan
37	988632	70	-nan
37	988632	71	-nan
37	988632	72	-nan
37	988632	73	-nan
37	988632	74	-nan
37	988632	75	-nan
37	988632	76	-nan
37	988632	77	-nan
37	988632	78	-nan
37	988632	79	-nan
37	988632	80	-nan
37	988632	81	-nan
37	988632	82	-nan
37	988632	83	-nan
37	988632	84	-nan
37	988632	85	-nan
37	988632	86	-nan
37	988632	87	-nan
37	988632	88	-nan
37	988632	89	-nan
37	988632	90	-nan
37	988632	91	-nan
37	988632	92	-nan
37	988632	93	-nan
37	988632	94	-nan
37	988632	95	-nan
37	988632	96	-nan
37	988632	97	-nan
37	988632	98	-nan
37	988632	99	-nan
37	988632	100	-nan
37	988632	101	-nan
37	988632	102	-nan
37	988632	103	-nan
37	988632	104	-nan
37	988632	105	-nan
37	988632	106	-nan
37	988632	107	-nan
37	988632	108	-nan
37	988632	109	-nan
37	988632	110	-nan
37	988632	111	-nan
37	988632	112	-nan
37	988632	113	-nan
37	988632	114	-nan
37	988632	115	-nan
37	988632	116	-nan
37	988632	117	-nan
37	988632	118	-nan
37	988632	119	-nan
37	988632	120	-nan
37	988632	121	-nan
37	988632	122	-nan
37	988632	123	-nan
37	988632	124	-nan
37	988632	125	-nan
37	988632	126	-nan
37	988632	127	-nan
37	988632	128	-nan
37	988632	129	-nan
37	988632	130	-nan
37	988632	131	-nan
37	988632	132	-nan
37	988632	133	-nan
37	988632	134	-nan
37	988632	135	-nan
37	988632	136	-nan
37	988632	137	-nan
37	988632	138	-nan
37	988632	139	-nan
37	988632	140	-nan
37	988632	141	-nan
37	988632	142	-nan
37	988632	143	-nan
37	988632	144	-nan
37	988632	145	-nan
37	988632	146	-nan
37	988632	147	-nan
37	988632	148	-nan
37	988632	149	-nan
37	988632	150	-nan
37	988632	151	-nan
37	988632	152	-nan
37	988632	153	-nan
37	988632	154	-nan
37	988632	155	-nan
37	988632	156	-nan
37	988632	157	-nan
37	988632	158	-nan
37	988632	159	-nan
37	988632	160	-nan
37	988632	161	-nan
37	988632	162	-nan
37	988632	163	-nan
37	988632	164	-nan
37	988632	165	-nan
37	988632	166	-nan
37	988632	167	-nan
37	988632	168	-nan
37	988632	169	-nan
37	988632	170	-nan
37	988632	171	-nan
37	988632	172	-nan
37	988632	173	-nan
37	988632	174	-nan
37	988632	175	-nan
37	988632	176	-nan
37	988632	177	-nan
37	988632	178	-nan
37	988632	179	-nan
37	988632	180	-nan
37	988632	181	-nan
37	988632	182	-nan
37	988632	183	-nan
37	988632	184	-nan
37	988632	185	-nan
37	988632	186	-nan
37	988632	187	-nan
37	988632	188	-nan
37	988632	189	-nan
37	988632	190	-nan
37	988632	191	-nan
37	988632	192	-nan
37	988632	193	-nan
37	988632	194	-nan
37	988632	195	-nan
37	988632	196	-nan
37	988632	197	-nan
37	988632	198	-nan
37	988632	199	-nan
37	988632	200	-nan
37	988632	201	-nan
37	988632	202	-nan
37	988632	203	-nan
37	988632	204	0
37	988632	205	-nan
37	988632	206	-nan
37	988632	207	-nan
37	988632	208	-nan
37	988632	209	-nan
37	988632	210	-nan
37	988632	211	-nan
37	988632	212	-nan
37	988632	213	-nan
37	988632	214	-nan
37	988632	215	-nan
37	988632	216	-nan
37	988632	217	-nan
37	988632	218	-nan
37	988632	219	-nan
37	988632	220	-nan
37	988632	221	-nan
37	988632	222	-nan
37	988632	223	-nan
37	988632	224	-nan
37	988632	225	-nan
37	988632	226	-nan
37	988632	227	-nan
37	988632	228	-nan
37	988632	229	-nan
37	988632	230	-nan
37	988632	231	-nan
37	988632	232	-nan
37	988632	233	-nan
37	988632	234	-nan
37	988632	235	0
37	988632	236	-nan
37	988632	237	-nan
37	988632	238	0
37	988632	239	-nan
37	988632	240	-nan
37	988632	241	-nan
37	988632	242	-nan
37	988632	243	-nan
37	988632	244	-nan
37	988632	245	-nan
37	988632	246	-nan
37	988632	247	-nan
37	988632	248	0
37	988632	249	-nan
37	988632	250	0
37	988632	251	-nan
37	988632	252	-nan
37	988632	253	-nan
37	988632	254	-nan
37	988632	255	-nan
37	988632	256	-nan
37	988632	257	-nan
37	988632	258	-nan
37	988632	259	-nan
37	988632	260	-nan
37	988632	261	-nan
37	988632	262	-nan
37	988632	263	-nan
37	988632	264	-nan
37	988632	265	-nan
37	988632	266	-nan
37	988632	267	-nan
37	988632	268	-nan
37	988632	269	-nan
37	988632	270	-nan
37	988632	271	-nan
37	988632	272	-nan
37	988632	273	-nan
37	988632	274	-nan
37	988632	275	-nan
37	988632	276	-nan
37	988632	277	-nan
37	988632	278	0
37	988632	279	-nan
37	988632	280	0
37	988632	281	-nan
37	988632	282	-nan
37	988632	283	-nan
37	988632	284	-nan
37	988632	285	-nan
37	988632	286	-nan
37	988632	287	-nan
37	988632	288	-nan
37	988632	289	-nan
37	988632	290	-nan
37	988632	291	-nan
37	988632	292	-nan
37	988632	293	-nan
37	988632	294	-nan
37	988632	295	-nan
37	988632	296	-nan
37	988632	297	-nan
37	988632	298	-nan
37	988632	299	-nan
37	988632	300	-nan
37	988632	301	-nan
37	988632	302	-nan
37	988632	303	-nan
37	988632	304	-nan
37	988632	305	0
37	988632	306	-nan
37	988632	307	-nan
37	988632	308	-nan
37	988632	309	-nan
37	988632	310	-nan
37	988632	311	-nan
37	988632	312	-nan
37	988632	313	-nan
37	988632	314	-nan
37	988632	315	-nan
37	988632	316	-nan
37	988632	317	-nan
37	988632	318	-nan
37	988632	319	-nan
37	988632	320	-nan
37	988632	321	-nan
37	988632	322	-nan
37	988632	323	-nan
37	988632	324	0
37	988632	325	-nan
37	988632	326	-nan
37	988632	327	0
37	988632	328	-nan
37	988632	329	-nan
37	988632	330	-nan
37	988632	331	0
37	988632	332	-nan
37	988632	333	-nan
37	988632	334	-nan
37	988632	335	-nan
37	988632	336	-nan
37	988632	337	-nan
37	988632	338	-nan
37	988632	339	0
37	988632	340	0
37	988632	341	-nan
37	988632	342	0
37	988632	343	-nan
37	988632	344	-nan
37	988632	345	-nan
37	988632	346	-nan
37	988632	347	0
37	988632	348	0
37	988632	349	-nan
37	988632	350	-nan
37	988632	351	-nan
37	988632	352	-nan
37	988632	353	-nan
37	988632	354	-nan
37	988632	355	-nan
37	988632	356	-nan
37	988632	357	0
37	988632	358	-nan
37	988632	359	-nan
37	988632	360	-nan
37	988632	361	-nan
37	988632	362	-nan
37	988632	363	-nan
37	988632	364	-nan
37	988632	365	-nan
37	988632	366	-nan
37	988632	367	0
37	988632	368	-nan
37	988632	369	-nan
37	988632	370	-nan
37	988632	371	-nan
37	988632	372	0
37	988632	373	-nan
37	988632	374	0
37	988632	375	0
37	988632	376	-nan
37	988632	377	-nan
37	988632	378	-nan
37	988632	379	-nan
37	988632	380	-nan
37	988632	381	-nan
37	988632	382	0
37	988632	383	-nan
37	988632	384	0
37	988632	385	-nan
37	988632	386	-nan
37	988632	387	-nan
37	988632	388	0
37	988632	389	-nan
37	988632	390	-nan
37	988632	391	-nan
37	988632	392	-nan
37	988632	393	-nan
37	988632	394	-nan
37	988632	395	-nan
37	988632	396	-nan
37	988632	397	-nan
37	988632	398	0
37	988632	399	0
37	988632	400	-nan
37	988632	401	0
37	988632	402	-nan
37	988632	403	0
37	988632	404	0
37	988632	405	-nan
37	988632	406	-nan
37	988632	407	-nan
37	988632	408	-nan
37	988632	409	-nan
37	988632	410	-nan
37	988632	411	-nan
37	988632	412	-nan
37	988632	413	-nan
37	988632	414	0
37	988632	415	-nan
37	988632	416	-nan
37	988632	417	-nan
37	988632	418	0
37	988632	419	-nan
37	988632	420	-nan
37	988632	421	-nan
37	988632	422	0
37	988632	423	-nan
37	988632	424	0
37	988632	425	-nan
37	988632	426	0
37	988632	427	-nan
37	988632	428	-nan
37	988632	429	0
37	988632	430	0
37	988632	431	0
37	988632	432	-nan
37	988632	433	-nan
37	988632	434	-nan
37	988632	435	-nan
37	988632	436	0
37	988632	437	-nan
37	988632	438	-nan
37	988632	439	-nan
37	988632	440	0
37	988632	441	-nan
37	988632	442	-nan
37	988632	443	-nan
37	988632	444	0
37	988632	445	-nan
37	988632	446	-nan
37	988632	447	-nan
37	988632	448	0
37	988632	449	-nan
37	988632	450	0
37	988632	451	0
37	988632	452	-nan
37	988632	453	0
37	988632	454	-nan
37	988632	455	0
37	988632	456	-nan
37	988632	457	-nan
37	988632	458	0
37	988632	459	-nan
37	988632	460	-nan
37	988632	461	0
37	988632	462	0
37	988632	463	0
37	988632	464	0
37	988632	465	0
37	988632	466	0
37	988632	467	-nan
37	988632	468	0
37	988632	469	-nan
37	988632	470	-nan
37	988632	471	0
37	988632	472	-nan
37	988632	473	-nan
37	988632	474	-nan
37	988632	475	0
37	988632	476	0
37	988632	477	-nan
37	988632	478	-nan
37	988632	479	-nan
37	988632	480	-nan
37	988632	481	0
37	988632	482	-nan
37	988632	483	0
37	988632	484	-nan
37	988632	485	0
37	988632	486	0
37	988632	487	0
37	988632	488	-nan
37	988632	489	-nan
37	988632	490	-nan
37	988632	491	-nan
37	988632	492	-nan
37	988632	493	-nan
37	988632	494	0
37	988632	495	-nan
37	988632	496	0
37	988632	497	-nan
37	988632	498	0
37	988632	499	-nan
37	988632	500	0
37	988632	501	-nan
37	988632	502	-nan
37	988632	503	0
37	988632	504	0
37	988632	505	0
37	988632	506	-nan
37	988632	507	-nan
37	988632	508	-nan
37	988632	509	-nan
37	988632	510	-nan
37	988632	511	-nan
37	988632	512	0
37	988632	513	0
37	988632	514	-nan
37	988632	515	-nan
37	988632	516	-nan
37	988632	517	0
37	988632	518	-nan
37	988632	519	0
37	988632	520	-nan
37	988632	521	0
37	988632	522	-nan
37	988632	523	0
37	988632	524	-nan
37	988632	525	-nan
37	988632	526	-nan
37	988632	527	0
37	988632	528	-nan
37	988632	529	0
37	988632	530	-nan
37	988632	531	0
37	988632	532	-nan
37	988632	533	-nan
37	988632	534	0
37	988632	535	0
37	988632	536	-nan
37	988632	537	-nan
37	988632	538	-nan
37	988632	539	0
37	988632	540	-nan
37	988632	541	0
37	988632	542	-nan
37	988632	543	-nan
37	988632	544	0
37	988632	545	-nan
37	988632	546	0
37	988632	547	0
37	988632	548	0
37	988632	549	0
37	988632	550	0
37	988632	551	-nan
37	988632	552	-nan
37	988632	553	-nan
37	988632	554	0
37	988632	555	0
37	988632	556	0
37	988632	557	-nan
37	988632	558	-nan
37	988632	559	0
37	988632	560	0
37	988632	561	-nan
37	988632	562	0
37	988632	563	-nan
37	988632	564	-nan
37	988632	565	-nan
37	988632	566	-nan
37	988632	567	-nan
37	988632	568	-nan
37	988632	569	-nan
37	988632	570	-nan
37	988632	571	-nan
37	988632	572	-nan
37	988632	573	-nan
37	988632	574	0
37	988632	575	0
37	988632	576	-nan
37	988632	577	-nan
37	988632	578	-nan
37	988632	579	-nan
37	988632	580	0
37	988632	581	-nan
37	988632	582	-nan
37	988632	583	0
37	988632	584	0
37	988632	585	-nan
37	988632	586	0
37	988632	587	-nan
37	988632	588	0
37	988632	589	-nan
37	988632	590	0
37	988632	591	0
37	988632	592	-nan
37	988632	593	0
37	988632	594	0
37	988632	595	0
37	988632	596	-nan
37	988632	597	0
37	988632	598	-nan
37	988632	599	0
37	988632	600	-nan
37	988632	601	0
37	988632	602	0
37	988632	603	-nan
37	988632	604	-nan
37	988632	605	-nan
37	988632	606	-nan
37	988632	607	0
37	988632	608	0
37	988632	609	-nan
37	988632	610	0
37	988632	611	-nan
37	988632	612	-nan
37	988632	613	-nan
37	988632	614	-nan
37	988632	615	0
37	988632	616	0
37	988632	617	-nan
37	988632	618	0
37	988632	619	0
37	988632	620	-nan
37	988632	621	-nan
37	988632	622	-nan
37	988632	623	0
37	988632	624	0
37	988632	625	0
37	988632	626	-nan
37	988632	627	-nan
37	988632	628	-nan
37	988632	629	-nan
37	988632	630	0
37	988632	631	0
37	988632	632	0
37	988632	633	-nan
37	988632	634	-nan
37	988632	635	0
37	988632	636	-nan
37	988632	637	0
37	988632	638	-nan
37	988632	639	0
37	988632	640	0
37	988632	641	-nan
37	988632	642	0
37	988632	643	0
37	988632	644	0
37	988632	645	0
37	988632	646	0
37	988632	647	-nan
37	988632	648	-nan
37	988632	649	-nan
37	988632	650	-nan
37	988632	651	-nan
37	988632	652	-nan
37	988632	653	-nan
37	988632	654	-nan
37	988632	655	0
37	988632	656	0
37	988632	657	0
37	988632	658	0
37	988632	659	-nan
37	988632	660	-nan
37	988632	661	-nan
37	988632	662	-nan
37	988632	663	0
37	988632	664	-nan
37	988632	665	0
37	988632	666	0
37	988632	667	-nan
37	988632	668	-nan
37	988632	669	-nan
37	988632	670	0
37	988632	671	-nan
37	988632	672	-nan
37	988632	673	-nan
37	988632	674	0
37	988632	675	-nan
37	988632	676	-nan
37	988632	677	-nan
37	988632	678	-nan
37	988632	679	-nan
37	988632	680	0
37	988632	681	0