file 463842169 1397917460                                       
version 2
run General-11-20140419-16:22:43-7277
attr D costprob0.01
attr F nrr
attr R lru
attr a 0.8
attr configname General
attr csize 10
attr ctlg 10^8
attr datetime 20140419-16:22:43
attr experiment General
attr inifile omnetpp.ini
attr iterationvars "$net=simple_scenario, $rep=1, $priceratiovalue=1, $a=0.8, $ctlg=10^8, $F=nrr, $ttl=1000, $D=costprob0.01, $R=lru, $csize=10"
attr iterationvars2 "$net=simple_scenario, $rep=1, $priceratiovalue=1, $a=0.8, $ctlg=10^8, $F=nrr, $ttl=1000, $D=costprob0.01, $R=lru, $csize=10, $repetition=0"
attr measurement "$net=simple_scenario, $rep=1, $priceratiovalue=1, $a=0.8, $ctlg=10^8, $F=nrr, $ttl=1000, $D=costprob0.01, $R=lru, $csize=10"
attr net simple_scenario
attr network networks.${net=simple_scenario}_network
attr priceratiovalue 1
attr processid 7277
attr rep 1
attr repetition 0
attr replication #0
attr resultdir results
attr runnumber 11
attr seedset 1
attr ttl 1000

vector 0  simple_scenario_network.node[0].content_store  hit_node[0]  ETV
0	999 15138430 1330494 1330494 1 699051 699051 0 0.33333333333333 -nan -nan
0	15139429 15746859 1330494 1330494 699052 1398102 699051 0 0 -nan -nan
0	30886288 16058499 1330494 1330494 1398103 2097153 699051 0 0 -nan -nan
0	46944787 16063122 1330494 1330494 2097154 2796204 699051 0 0 -nan -nan
0	63007909 15927057 1330494 1330494 2796205 3489213 693009 0 0 -nan -nan
vector 1  simple_scenario_network.node[1].content_store  hit_node[1]  ETV
1	78935040 15203050 1330494 1330494 1 699051 699051 0 0.83204134366925 -nan -nan
1	94138090 15762087 1330494 1330494 699052 1398102 699051 0 0 -nan -nan
1	109900177 16068393 1330494 1330494 1398103 2097153 699051 0 0 -nan -nan
1	125968570 16070610 1330494 1330494 2097154 2796204 699051 0 0 -nan -nan
1	142039180 15933183 1330494 1330494 2796205 3489213 693009 0 0 -nan -nan
vector 2  simple_scenario_network.node[2].content_store  hit_node[2]  ETV
2	157972437 15203300 1330494 1330494 1 699051 699051 0 0.92727272727273 -nan -nan
2	173175737 15761997 1330494 1330494 699052 1398102 699051 0 0 -nan -nan
2	188937734 16068279 1330494 1330494 1398103 2097153 699051 0 0 -nan -nan
2	205006013 16070685 1330494 1330494 2097154 2796204 699051 0 0 -nan -nan
2	221076698 15933081 1330494 1330494 2796205 3489213 693009 0 0 -nan -nan
vector 3  simple_scenario_network.node[3].content_store  hit_node[3]  ETV
3	237009853 15202932 1330494 1330494 1 699051 699051 0 0 -nan -nan
3	252212785 15762087 1330494 1330494 699052 1398102 699051 0 0 -nan -nan
3	267974872 16068393 1330494 1330494 1398103 2097153 699051 0 0 -nan -nan
3	284043265 16070610 1330494 1330494 2097154 2796204 699051 0 0 -nan -nan
3	300113875 15933183 1330494 1330494 2796205 3489213 693009 0 0 -nan -nan
vector 4  simple_scenario_network.node[4].content_store  hit_node[4]  ETV
4	316047132 15203142 1330494 1330494 1 699051 699051 0 0 -nan -nan
4	331250274 15761997 1330494 1330494 699052 1398102 699051 0 0 -nan -nan
4	347012271 16068279 1330494 1330494 1398103 2097153 699051 0 0 -nan -nan
4	363080550 16070685 1330494 1330494 2097154 2796204 699051 0 0 -nan -nan
4	379151235 15933081 1330494 1330494 2796205 3489213 693009 0 0 -nan -nan
vector 5  simple_scenario_network.client[0]  hdistance[0]  ETV
5	395084379 13253707 1330494 1330494 1 699051 699051 0 3 129886.22484301 389440.51702585
5	408338086 13680891 1330494 1330494 699052 1398102 699051 0 3 30365.413965717 91094.489753849
5	422018977 13981492 1330494 1330494 1398103 2097153 699051 0 3 19673.671513097 59020.032301906
5	436000469 13981254 1330494 1330494 2097154 2796204 699051 0 3 15050.844492006 45152.068441951
5	449981723 13860446 1330494 1330494 2796205 3489213 693009 0 3 12149.823125726 36448.940499837
