version 2
run General-3-20140408-17:15:00-22544
attr D fix0.2
attr F spr
attr R lru
attr a 1
attr configname General
attr csize 2
attr datetime 20140408-17:15:00
attr experiment General
attr inifile omnetpp.ini
attr iterationvars "$net=simple_scenario, $rep=0, $a=1, $F=spr, $ttl=1000, $D=fix0.2, $R=lru, $csize=2"
attr iterationvars2 "$net=simple_scenario, $rep=0, $a=1, $F=spr, $ttl=1000, $D=fix0.2, $R=lru, $csize=2, $repetition=0"
attr measurement "$net=simple_scenario, $rep=0, $a=1, $F=spr, $ttl=1000, $D=fix0.2, $R=lru, $csize=2"
attr net simple_scenario
attr network networks.${net=simple_scenario}_network
attr processid 22544
attr rep 0
attr repetition 0
attr replication #0
attr resultdir results
attr runnumber 3
attr seedset 0
attr ttl 1000

vector 18  simple_scenario_network.node[0].content_store  hit_node[0]  ETV
18	42628	1	0
18	42628	2	0
18	42628	3	0
18	42628	4	0
18	42628	5	0
18	42628	6	0
18	42628	7	-nan
18	42628	8	0
18	42628	9	0
18	42628	10	0
18	42628	11	0
18	42628	12	-nan
18	42628	13	-nan
18	42628	14	0
18	42628	15	0
18	42628	16	-nan
18	42628	17	-nan
18	42628	18	0
18	42628	19	-nan
18	42628	20	0
18	42628	21	-nan
18	42628	22	-nan
18	42628	23	0
18	42628	24	0
18	42628	25	-nan
18	42628	26	-nan
18	42628	27	0
18	42628	28	-nan
18	42628	29	-nan
18	42628	30	-nan
18	42628	31	-nan
18	42628	32	-nan
18	42628	33	-nan
18	42628	34	-nan
18	42628	35	0
18	42628	36	0
18	42628	37	0
18	42628	38	0
18	42628	39	-nan
18	42628	40	-nan
18	42628	41	-nan
18	42628	42	0
18	42628	43	-nan
18	42628	44	0
18	42628	45	-nan
18	42628	46	-nan
18	42628	47	-nan
18	42628	48	-nan
18	42628	49	-nan
18	42628	50	0
18	42628	51	-nan
18	42628	52	-nan
18	42628	53	-nan
18	42628	54	-nan
18	42628	55	0
18	42628	56	-nan
18	42628	57	-nan
18	42628	58	-nan
18	42628	59	-nan
18	42628	60	-nan
18	42628	61	-nan
18	42628	62	-nan
18	42628	63	-nan
18	42628	64	-nan
18	42628	65	-nan
18	42628	66	-nan
18	42628	67	-nan
18	42628	68	0
18	42628	69	-nan
18	42628	70	-nan
18	42628	71	-nan
18	42628	72	-nan
18	42628	73	-nan
18	42628	74	-nan
18	42628	75	-nan
18	42628	76	0
vector 19  simple_scenario_network.node[1].content_store  hit_node[1]  ETV
19	42628	1	0.375
19	42628	2	-nan
19	42628	3	-nan
19	42628	4	0
19	42628	5	-nan
19	42628	6	-nan
19	42628	7	-nan
19	42628	8	-nan
19	42628	9	-nan
19	42628	10	-nan
19	42628	11	-nan
19	42628	12	-nan
19	42628	13	-nan
19	42628	14	-nan
19	42628	15	0
19	42628	16	-nan
19	42628	17	-nan
19	42628	18	0
19	42628	19	-nan
19	42628	20	-nan
19	42628	21	-nan
19	42628	22	-nan
19	42628	23	-nan
19	42628	24	0
19	42628	25	-nan
19	42628	26	-nan
19	42628	27	-nan
19	42628	28	-nan
19	42628	29	-nan
19	42628	30	-nan
19	42628	31	-nan
19	42628	32	-nan
19	42628	33	-nan
19	42628	34	-nan
19	42628	35	-nan
19	42628	36	-nan
19	42628	37	0
19	42628	38	-nan
19	42628	39	-nan
19	42628	40	-nan
19	42628	41	-nan
19	42628	42	-nan
19	42628	43	-nan
19	42628	44	-nan
19	42628	45	-nan
19	42628	46	-nan
19	42628	47	-nan
19	42628	48	-nan
19	42628	49	-nan
19	42628	50	-nan
19	42628	51	-nan
19	42628	52	-nan
19	42628	53	-nan
19	42628	54	-nan
19	42628	55	-nan
19	42628	56	-nan
19	42628	57	-nan
19	42628	58	-nan
19	42628	59	-nan
19	42628	60	-nan
19	42628	61	-nan
19	42628	62	-nan
19	42628	63	-nan
19	42628	64	-nan
19	42628	65	-nan
19	42628	66	-nan
19	42628	67	-nan
19	42628	68	0
19	42628	69	-nan
19	42628	70	-nan
19	42628	71	-nan
19	42628	72	-nan
19	42628	73	-nan
19	42628	74	-nan
19	42628	75	-nan
19	42628	76	-nan
vector 20  simple_scenario_network.node[2].content_store  hit_node[2]  ETV
20	42628	1	-nan
20	42628	2	0
20	42628	3	0.33333333333333
20	42628	4	-nan
20	42628	5	0
20	42628	6	0
20	42628	7	-nan
20	42628	8	0
20	42628	9	0.25
20	42628	10	0
20	42628	11	0
20	42628	12	-nan
20	42628	13	-nan
20	42628	14	0
20	42628	15	-nan
20	42628	16	-nan
20	42628	17	-nan
20	42628	18	-nan
20	42628	19	-nan
20	42628	20	0
20	42628	21	-nan
20	42628	22	-nan
20	42628	23	0
20	42628	24	-nan
20	42628	25	-nan
20	42628	26	-nan
20	42628	27	0
20	42628	28	-nan
20	42628	29	-nan
20	42628	30	-nan
20	42628	31	-nan
20	42628	32	-nan
20	42628	33	-nan
20	42628	34	-nan
20	42628	35	0
20	42628	36	0
20	42628	37	-nan
20	42628	38	0
20	42628	39	-nan
20	42628	40	-nan
20	42628	41	-nan
20	42628	42	0
20	42628	43	-nan
20	42628	44	0
20	42628	45	-nan
20	42628	46	-nan
20	42628	47	-nan
20	42628	48	-nan
20	42628	49	-nan
20	42628	50	0
20	42628	51	-nan
20	42628	52	-nan
20	42628	53	-nan
20	42628	54	-nan
20	42628	55	0
20	42628	56	-nan
20	42628	57	-nan
20	42628	58	-nan
20	42628	59	-nan
20	42628	60	-nan
20	42628	61	-nan
20	42628	62	-nan
20	42628	63	-nan
20	42628	64	-nan
20	42628	65	-nan
20	42628	66	-nan
20	42628	67	-nan
20	42628	68	-nan
20	42628	69	-nan
20	42628	70	-nan
20	42628	71	-nan
20	42628	72	-nan
20	42628	73	-nan
20	42628	74	-nan
20	42628	75	-nan
20	42628	76	0
vector 21  simple_scenario_network.node[3].content_store  hit_node[3]  ETV
21	42628	1	0
21	42628	2	-nan
21	42628	3	-nan
21	42628	4	0
21	42628	5	-nan
21	42628	6	-nan
21	42628	7	-nan
21	42628	8	-nan
21	42628	9	-nan
21	42628	10	-nan
21	42628	11	-nan
21	42628	12	-nan
21	42628	13	-nan
21	42628	14	-nan
21	42628	15	0
21	42628	16	-nan
21	42628	17	-nan
21	42628	18	0
21	42628	19	-nan
21	42628	20	-nan
21	42628	21	-nan
21	42628	22	-nan
21	42628	23	-nan
21	42628	24	0
21	42628	25	-nan
21	42628	26	-nan
21	42628	27	-nan
21	42628	28	-nan
21	42628	29	-nan
21	42628	30	-nan
21	42628	31	-nan
21	42628	32	-nan
21	42628	33	-nan
21	42628	34	-nan
21	42628	35	-nan
21	42628	36	-nan
21	42628	37	0
21	42628	38	-nan
21	42628	39	-nan
21	42628	40	-nan
21	42628	41	-nan
21	42628	42	-nan
21	42628	43	-nan
21	42628	44	-nan
21	42628	45	-nan
21	42628	46	-nan
21	42628	47	-nan
21	42628	48	-nan
21	42628	49	-nan
21	42628	50	-nan
21	42628	51	-nan
21	42628	52	-nan
21	42628	53	-nan
21	42628	54	-nan
21	42628	55	-nan
21	42628	56	-nan
21	42628	57	-nan
21	42628	58	-nan
21	42628	59	-nan
21	42628	60	-nan
21	42628	61	-nan
21	42628	62	-nan
21	42628	63	-nan
21	42628	64	-nan
21	42628	65	-nan
21	42628	66	-nan
21	42628	67	-nan
21	42628	68	0
21	42628	69	-nan
21	42628	70	-nan
21	42628	71	-nan
21	42628	72	-nan
21	42628	73	-nan
21	42628	74	-nan
21	42628	75	-nan
21	42628	76	-nan
vector 22  simple_scenario_network.node[4].content_store  hit_node[4]  ETV
22	42628	1	-nan
22	42628	2	0
22	42628	3	0
22	42628	4	-nan
22	42628	5	0
22	42628	6	0
22	42628	7	-nan
22	42628	8	0
22	42628	9	0
22	42628	10	0
22	42628	11	0
22	42628	12	-nan
22	42628	13	-nan
22	42628	14	0
22	42628	15	-nan
22	42628	16	-nan
22	42628	17	-nan
22	42628	18	-nan
22	42628	19	-nan
22	42628	20	0
22	42628	21	-nan
22	42628	22	-nan
22	42628	23	0
22	42628	24	-nan
22	42628	25	-nan
22	42628	26	-nan
22	42628	27	0
22	42628	28	-nan
22	42628	29	-nan
22	42628	30	-nan
22	42628	31	-nan
22	42628	32	-nan
22	42628	33	-nan
22	42628	34	-nan
22	42628	35	0
22	42628	36	0
22	42628	37	-nan
22	42628	38	0
22	42628	39	-nan
22	42628	40	-nan
22	42628	41	-nan
22	42628	42	0
22	42628	43	-nan
22	42628	44	0
22	42628	45	-nan
22	42628	46	-nan
22	42628	47	-nan
22	42628	48	-nan
22	42628	49	-nan
22	42628	50	0
22	42628	51	-nan
22	42628	52	-nan
22	42628	53	-nan
22	42628	54	-nan
22	42628	55	0
22	42628	56	-nan
22	42628	57	-nan
22	42628	58	-nan
22	42628	59	-nan
22	42628	60	-nan
22	42628	61	-nan
22	42628	62	-nan
22	42628	63	-nan
22	42628	64	-nan
22	42628	65	-nan
22	42628	66	-nan
22	42628	67	-nan
22	42628	68	-nan
22	42628	69	-nan
22	42628	70	-nan
22	42628	71	-nan
22	42628	72	-nan
22	42628	73	-nan
22	42628	74	-nan
22	42628	75	-nan
22	42628	76	0
vector 23  simple_scenario_network.client[0]  hdistance[0]  ETV
23	42628	1	2.8990384615385
23	42628	2	2.9139784946237
23	42628	3	2.5196078431373
23	42628	4	2.9302325581395
23	42628	5	3
23	42628	6	3
23	42628	7	0
23	42628	8	2.9183673469388
23	42628	9	2.8983050847458
23	42628	10	3
23	42628	11	3
23	42628	12	0
23	42628	13	0
23	42628	14	2.94
23	42628	15	3
23	42628	16	0
23	42628	17	0
23	42628	18	3
23	42628	19	0
23	42628	20	2.9333333333333
23	42628	21	0
23	42628	22	0
23	42628	23	2.92
23	42628	24	3
23	42628	25	0
23	42628	26	0
23	42628	27	3
23	42628	28	0
23	42628	29	0
23	42628	30	0
23	42628	31	0
23	42628	32	0
23	42628	33	0
23	42628	34	0
23	42628	35	2.9393939393939
23	42628	36	3
23	42628	37	3
23	42628	38	3
23	42628	39	0
23	42628	40	0
23	42628	41	0
23	42628	42	3
23	42628	43	0
23	42628	44	3
23	42628	45	0
23	42628	46	0
23	42628	47	0
23	42628	48	0
23	42628	49	0
23	42628	50	3
23	42628	51	0
23	42628	52	0
23	42628	53	0
23	42628	54	0
23	42628	55	3
23	42628	56	0
23	42628	57	0
23	42628	58	0
23	42628	59	0
23	42628	60	0
23	42628	61	0
23	42628	62	0
23	42628	63	0
23	42628	64	0
23	42628	65	0
23	42628	66	0
23	42628	67	0
23	42628	68	3
23	42628	69	0
23	42628	70	0
23	42628	71	0
23	42628	72	0
23	42628	73	0
23	42628	74	0
23	42628	75	0
23	42628	76	3
