version 2
run General-6-20150311-18:59:35-28959
attr D prob_cache
attr F spr
attr R lru
attr a 0.6
attr configname General
attr datetime 20150311-18:59:35
attr experiment General
attr inifile omnetpp.ini
attr iterationvars "$net=abilene, $rep=0, $a=0.6, $F=spr, $ttl=1000, $D=prob_cache, $R=lru"
attr iterationvars2 "$net=abilene, $rep=0, $a=0.6, $F=spr, $ttl=1000, $D=prob_cache, $R=lru, $repetition=0"
attr measurement "$net=abilene, $rep=0, $a=0.6, $F=spr, $ttl=1000, $D=prob_cache, $R=lru"
attr net abilene
attr network networks.${net=abilene}_network
attr processid 28959
attr rep 0
attr repetition 0
attr replication #0
attr resultdir results
attr runnumber 6
attr seedset 0
attr ttl 1000

vector 0  abilene_network.node[0].content_store  hit_node[0]  ETV
0	582737	1	1
0	582737	2	0.90909090909091
0	582737	3	0.25
0	582737	4	0
0	582737	5	0.66666666666667
0	582737	6	0.16666666666667
0	582737	7	0.33333333333333
0	582737	8	0
0	582737	9	1
0	582737	10	0
0	582737	11	0
0	582737	12	0
0	582737	13	0
0	582737	14	1
0	582737	15	0
0	582737	16	0
0	582737	17	0
0	582737	18	0.75
0	582737	19	0
0	582737	20	1
0	582737	21	0.25
0	582737	22	0.66666666666667
0	582737	23	0.5
0	582737	24	0
0	582737	25	0
0	582737	26	0
0	582737	27	0
0	582737	28	0
0	582737	29	0
0	582737	30	0
0	582737	31	0
0	582737	32	0
0	582737	33	0
0	582737	34	0.33333333333333
0	582737	35	0
0	582737	36	0
0	582737	37	0
0	582737	38	0
0	582737	39	0
0	582737	40	0
0	582737	41	0
0	582737	42	0
0	582737	43	0
0	582737	44	-nan
0	582737	45	0.5
0	582737	46	0
0	582737	47	0
0	582737	48	-nan
0	582737	49	0
0	582737	50	0
0	582737	51	0
0	582737	52	0
0	582737	53	0.5
0	582737	54	0
0	582737	55	0.5
0	582737	56	0
0	582737	57	0
0	582737	58	0
0	582737	59	0
0	582737	60	0
0	582737	61	0
0	582737	62	0.33333333333333
0	582737	63	0
0	582737	64	-nan
0	582737	65	0
0	582737	66	-nan
0	582737	67	0
0	582737	68	0
0	582737	69	0
0	582737	70	-nan
0	582737	71	0
0	582737	72	-nan
0	582737	73	0
0	582737	74	0
0	582737	75	0
0	582737	76	0
0	582737	77	0
0	582737	78	0
0	582737	79	0
0	582737	80	0
0	582737	81	0
0	582737	82	-nan
0	582737	83	-nan
0	582737	84	0
0	582737	85	-nan
0	582737	86	0
0	582737	87	0
0	582737	88	0.5
0	582737	89	0
0	582737	90	-nan
0	582737	91	0
0	582737	92	0
0	582737	93	0
0	582737	94	0
0	582737	95	-nan
0	582737	96	-nan
0	582737	97	0
0	582737	98	0
0	582737	99	-nan
0	582737	100	0
0	582737	101	-nan
0	582737	102	1
0	582737	103	-nan
0	582737	104	-nan
0	582737	105	0
0	582737	106	0
0	582737	107	1
0	582737	108	0
0	582737	109	0
0	582737	110	-nan
0	582737	111	-nan
0	582737	112	0
0	582737	113	0
0	582737	114	-nan
0	582737	115	-nan
0	582737	116	-nan
0	582737	117	0
0	582737	118	0
0	582737	119	-nan
0	582737	120	0
0	582737	121	0
0	582737	122	0
0	582737	123	0
0	582737	124	0
0	582737	125	-nan
0	582737	126	-nan
0	582737	127	0
0	582737	128	0
0	582737	129	-nan
0	582737	130	0
0	582737	131	0
0	582737	132	0
0	582737	133	-nan
0	582737	134	-nan
0	582737	135	-nan
0	582737	136	-nan
0	582737	137	0
0	582737	138	-nan
0	582737	139	-nan
0	582737	140	0
0	582737	141	0
0	582737	142	-nan
0	582737	143	0
0	582737	144	0
0	582737	145	0
0	582737	146	0
0	582737	147	-nan
0	582737	148	0
0	582737	149	0
0	582737	150	0
0	582737	151	0
0	582737	152	-nan
0	582737	153	0
0	582737	154	0
0	582737	155	0
0	582737	156	0
0	582737	157	0
0	582737	158	0
0	582737	159	0
0	582737	160	0
0	582737	161	0
0	582737	162	0
0	582737	163	0
0	582737	164	0
0	582737	165	0
0	582737	166	-nan
0	582737	167	0
0	582737	168	-nan
0	582737	169	-nan
0	582737	170	0
0	582737	171	0
0	582737	172	-nan
0	582737	173	-nan
0	582737	174	-nan
0	582737	175	0
0	582737	176	-nan
0	582737	177	0
0	582737	178	0
0	582737	179	0
0	582737	180	-nan
0	582737	181	-nan
0	582737	182	0
0	582737	183	-nan
0	582737	184	-nan
0	582737	185	-nan
0	582737	186	-nan
0	582737	187	-nan
0	582737	188	0
0	582737	189	-nan
0	582737	190	0
0	582737	191	0
0	582737	192	0
0	582737	193	-nan
0	582737	194	0
0	582737	195	0
0	582737	196	0
0	582737	197	0
0	582737	198	-nan
0	582737	199	0
0	582737	200	-nan
0	582737	201	0.66666666666667
0	582737	202	-nan
0	582737	203	-nan
0	582737	204	-nan
0	582737	205	-nan
0	582737	206	-nan
0	582737	207	-nan
0	582737	208	-nan
0	582737	209	0
0	582737	210	0
0	582737	211	-nan
0	582737	212	-nan
0	582737	213	0.5
0	582737	214	0
0	582737	215	0
0	582737	216	-nan
0	582737	217	0
0	582737	218	0
0	582737	219	-nan
0	582737	220	0
0	582737	221	0
0	582737	222	0
0	582737	223	0
0	582737	224	0.5
0	582737	225	0
0	582737	226	0
0	582737	227	0
0	582737	228	-nan
0	582737	229	-nan
0	582737	230	0
0	582737	231	0
0	582737	232	0
0	582737	233	-nan
0	582737	234	0
0	582737	235	-nan
0	582737	236	0
0	582737	237	0
0	582737	238	0
0	582737	239	0
0	582737	240	-nan
0	582737	241	-nan
0	582737	242	-nan
0	582737	243	0
0	582737	244	-nan
0	582737	245	-nan
0	582737	246	0
0	582737	247	-nan
0	582737	248	0
0	582737	249	-nan
0	582737	250	0
0	582737	251	0
0	582737	252	-nan
0	582737	253	-nan
0	582737	254	0
0	582737	255	0
0	582737	256	0
0	582737	257	0
0	582737	258	0
0	582737	259	-nan
0	582737	260	-nan
0	582737	261	-nan
0	582737	262	0
0	582737	263	0
0	582737	264	0
0	582737	265	-nan
0	582737	266	-nan
0	582737	267	0
0	582737	268	-nan
0	582737	269	-nan
0	582737	270	-nan
0	582737	271	0
0	582737	272	-nan
0	582737	273	-nan
0	582737	274	-nan
0	582737	275	0
0	582737	276	-nan
0	582737	277	0
0	582737	278	-nan
0	582737	279	-nan
0	582737	280	-nan
0	582737	281	0
0	582737	282	0
0	582737	283	-nan
0	582737	284	-nan
0	582737	285	-nan
0	582737	286	0
0	582737	287	-nan
0	582737	288	0
0	582737	289	-nan
0	582737	290	0
0	582737	291	0
0	582737	292	0
0	582737	293	0
0	582737	294	0
0	582737	295	0
0	582737	296	-nan
0	582737	297	0
0	582737	298	0
0	582737	299	-nan
0	582737	300	0
0	582737	301	0
0	582737	302	-nan
0	582737	303	-nan
0	582737	304	0
0	582737	305	0
0	582737	306	0
0	582737	307	0
0	582737	308	0
0	582737	309	0
0	582737	310	0
0	582737	311	-nan
0	582737	312	-nan
0	582737	313	-nan
0	582737	314	0
0	582737	315	0
0	582737	316	-nan
0	582737	317	-nan
0	582737	318	-nan
0	582737	319	-nan
0	582737	320	0
0	582737	321	0
0	582737	322	-nan
0	582737	323	0
0	582737	324	-nan
0	582737	325	0
0	582737	326	-nan
0	582737	327	-nan
0	582737	328	-nan
0	582737	329	-nan
0	582737	330	-nan
0	582737	331	-nan
0	582737	332	-nan
0	582737	333	-nan
0	582737	334	0
0	582737	335	0
0	582737	336	-nan
0	582737	337	-nan
0	582737	338	-nan
0	582737	339	-nan
0	582737	340	-nan
0	582737	341	-nan
0	582737	342	-nan
0	582737	343	0
0	582737	344	1
0	582737	345	-nan
0	582737	346	-nan
0	582737	347	-nan
0	582737	348	-nan
0	582737	349	-nan
0	582737	350	-nan
0	582737	351	-nan
0	582737	352	0
0	582737	353	-nan
0	582737	354	-nan
0	582737	355	-nan
0	582737	356	0
0	582737	357	-nan
0	582737	358	-nan
0	582737	359	-nan
0	582737	360	-nan
0	582737	361	0
0	582737	362	-nan
0	582737	363	-nan
0	582737	364	-nan
0	582737	365	-nan
0	582737	366	-nan
0	582737	367	0
0	582737	368	-nan
0	582737	369	-nan
0	582737	370	0
0	582737	371	-nan
0	582737	372	-nan
0	582737	373	0
0	582737	374	0
0	582737	375	-nan
0	582737	376	0
0	582737	377	-nan
0	582737	378	0
0	582737	379	0
0	582737	380	0
0	582737	381	0
0	582737	382	0
0	582737	383	0
0	582737	384	0
0	582737	385	-nan
0	582737	386	0
0	582737	387	-nan
0	582737	388	-nan
0	582737	389	-nan
0	582737	390	-nan
0	582737	391	-nan
0	582737	392	0
0	582737	393	-nan
0	582737	394	-nan
0	582737	395	-nan
0	582737	396	0
0	582737	397	-nan
0	582737	398	-nan
0	582737	399	-nan
0	582737	400	0
0	582737	401	-nan
0	582737	402	-nan
0	582737	403	-nan
0	582737	404	-nan
0	582737	405	0
0	582737	406	0
0	582737	407	0
0	582737	408	-nan
0	582737	409	0
0	582737	410	-nan
0	582737	411	-nan
0	582737	412	-nan
0	582737	413	-nan
0	582737	414	-nan
0	582737	415	0
0	582737	416	0
0	582737	417	0
0	582737	418	0
0	582737	419	0
0	582737	420	0
0	582737	421	-nan
0	582737	422	0.5
0	582737	423	0
0	582737	424	-nan
0	582737	425	0
0	582737	426	-nan
0	582737	427	-nan
0	582737	428	0
0	582737	429	-nan
0	582737	430	0
0	582737	431	-nan
0	582737	432	-nan
0	582737	433	-nan
0	582737	434	-nan
0	582737	435	-nan
0	582737	436	0
0	582737	437	-nan
0	582737	438	0
0	582737	439	0
0	582737	440	-nan
0	582737	441	-nan
0	582737	442	0
0	582737	443	0
0	582737	444	0
0	582737	445	-nan
0	582737	446	0
0	582737	447	-nan
0	582737	448	0
0	582737	449	-nan
0	582737	450	-nan
0	582737	451	-nan
0	582737	452	-nan
0	582737	453	0
0	582737	454	-nan
0	582737	455	0
0	582737	456	0
0	582737	457	0
0	582737	458	-nan
0	582737	459	-nan
0	582737	460	0
0	582737	461	-nan
0	582737	462	0
0	582737	463	0
0	582737	464	-nan
0	582737	465	-nan
0	582737	466	0
0	582737	467	-nan
0	582737	468	0
0	582737	469	-nan
0	582737	470	-nan
0	582737	471	0
0	582737	472	0
0	582737	473	-nan
0	582737	474	-nan
0	582737	475	0
0	582737	476	-nan
0	582737	477	0
0	582737	478	0
0	582737	479	0
0	582737	480	0
0	582737	481	-nan
0	582737	482	-nan
0	582737	483	-nan
0	582737	484	-nan
0	582737	485	-nan
0	582737	486	-nan
0	582737	487	-nan
0	582737	488	-nan
0	582737	489	0.66666666666667
0	582737	490	0
0	582737	491	-nan
0	582737	492	-nan
0	582737	493	0
0	582737	494	-nan
0	582737	495	-nan
0	582737	496	-nan
0	582737	497	-nan
0	582737	498	-nan
0	582737	499	-nan
0	582737	500	-nan
0	582737	501	0
0	582737	502	-nan
0	582737	503	-nan
0	582737	504	-nan
0	582737	505	0
0	582737	506	-nan
0	582737	507	0
0	582737	508	-nan
0	582737	509	-nan
0	582737	510	0
0	582737	511	-nan
0	582737	512	-nan
0	582737	513	-nan
0	582737	514	0
0	582737	515	0
0	582737	516	-nan
0	582737	517	-nan
0	582737	518	0
0	582737	519	-nan
0	582737	520	0
0	582737	521	-nan
0	582737	522	-nan
0	582737	523	-nan
0	582737	524	0
0	582737	525	-nan
0	582737	526	-nan
0	582737	527	-nan
0	582737	528	-nan
0	582737	529	-nan
0	582737	530	-nan
0	582737	531	-nan
0	582737	532	-nan
0	582737	533	0
0	582737	534	-nan
0	582737	535	0
0	582737	536	0
0	582737	537	-nan
0	582737	538	-nan
0	582737	539	-nan
0	582737	540	0
0	582737	541	-nan
0	582737	542	0
0	582737	543	-nan
0	582737	544	-nan
0	582737	545	-nan
0	582737	546	-nan
0	582737	547	-nan
0	582737	548	-nan
0	582737	549	-nan
0	582737	550	-nan
0	582737	551	-nan
0	582737	552	0
0	582737	553	0
0	582737	554	0
0	582737	555	0
0	582737	556	-nan
0	582737	557	0
0	582737	558	-nan
0	582737	559	-nan
0	582737	560	0
0	582737	561	-nan
0	582737	562	0
0	582737	563	-nan
0	582737	564	-nan
0	582737	565	-nan
0	582737	566	-nan
0	582737	567	-nan
0	582737	568	0
0	582737	569	-nan
0	582737	570	-nan
0	582737	571	-nan
0	582737	572	-nan
0	582737	573	0
0	582737	574	0
0	582737	575	-nan
0	582737	576	-nan
0	582737	577	-nan
0	582737	578	0
0	582737	579	-nan
0	582737	580	0
0	582737	581	-nan
0	582737	582	-nan
0	582737	583	-nan
0	582737	584	-nan
0	582737	585	-nan
0	582737	586	0
0	582737	587	-nan
0	582737	588	-nan
0	582737	589	0
0	582737	590	-nan
0	582737	591	-nan
0	582737	592	-nan
0	582737	593	0
0	582737	594	0
0	582737	595	0
0	582737	596	-nan
0	582737	597	-nan
0	582737	598	-nan
0	582737	599	-nan
0	582737	600	-nan
0	582737	601	0
0	582737	602	-nan
0	582737	603	-nan
0	582737	604	0
0	582737	605	-nan
0	582737	606	-nan
0	582737	607	-nan
0	582737	608	-nan
0	582737	609	-nan
0	582737	610	0
0	582737	611	-nan
0	582737	612	-nan
0	582737	613	-nan
0	582737	614	0
0	582737	615	0
0	582737	616	0
0	582737	617	-nan
0	582737	618	-nan
0	582737	619	-nan
0	582737	620	0
0	582737	621	0
0	582737	622	-nan
0	582737	623	-nan
0	582737	624	-nan
0	582737	625	0
0	582737	626	-nan
0	582737	627	0
0	582737	628	-nan
0	582737	629	0
0	582737	630	0
0	582737	631	0
0	582737	632	0
0	582737	633	-nan
0	582737	634	-nan
0	582737	635	-nan
0	582737	636	-nan
0	582737	637	0
0	582737	638	0
0	582737	639	-nan
0	582737	640	0
0	582737	641	0
0	582737	642	0
0	582737	643	-nan
0	582737	644	-nan
0	582737	645	-nan
0	582737	646	-nan
0	582737	647	0
0	582737	648	0
0	582737	649	-nan
0	582737	650	-nan
0	582737	651	-nan
0	582737	652	-nan
0	582737	653	-nan
0	582737	654	-nan
0	582737	655	-nan
0	582737	656	-nan
0	582737	657	0
0	582737	658	-nan
0	582737	659	-nan
0	582737	660	-nan
0	582737	661	0
0	582737	662	0
0	582737	663	-nan
0	582737	664	0
0	582737	665	-nan
0	582737	666	-nan
0	582737	667	-nan
0	582737	668	-nan
0	582737	669	-nan
0	582737	670	-nan
0	582737	671	-nan
0	582737	672	-nan
0	582737	673	-nan
0	582737	674	-nan
0	582737	675	-nan
0	582737	676	-nan
0	582737	677	-nan
0	582737	678	-nan
0	582737	679	-nan
0	582737	680	0
0	582737	681	-nan
0	582737	682	-nan
0	582737	683	-nan
0	582737	684	-nan
0	582737	685	0
0	582737	686	0
0	582737	687	-nan
0	582737	688	-nan
0	582737	689	-nan
0	582737	690	-nan
0	582737	691	-nan
0	582737	692	0
0	582737	693	0
0	582737	694	-nan
0	582737	695	-nan
0	582737	696	-nan
0	582737	697	0
0	582737	698	0
0	582737	699	-nan
0	582737	700	-nan
0	582737	701	-nan
0	582737	702	-nan
0	582737	703	-nan
0	582737	704	-nan
0	582737	705	0
0	582737	706	-nan
0	582737	707	-nan
0	582737	708	-nan
0	582737	709	-nan
0	582737	710	-nan
0	582737	711	-nan
0	582737	712	0
0	582737	713	0
0	582737	714	-nan
0	582737	715	0
0	582737	716	-nan
0	582737	717	-nan
0	582737	718	0
0	582737	719	-nan
0	582737	720	-nan
0	582737	721	-nan
0	582737	722	-nan
0	582737	723	-nan
0	582737	724	0
0	582737	725	0
0	582737	726	-nan
0	582737	727	0
0	582737	728	-nan
0	582737	729	-nan
0	582737	730	0
0	582737	731	-nan
0	582737	732	-nan
0	582737	733	-nan
0	582737	734	-nan
0	582737	735	-nan
0	582737	736	-nan
0	582737	737	-nan
0	582737	738	-nan
0	582737	739	-nan
0	582737	740	0
0	582737	741	-nan
0	582737	742	0
0	582737	743	0
0	582737	744	-nan
0	582737	745	0
0	582737	746	-nan
0	582737	747	-nan
0	582737	748	0
0	582737	749	-nan
0	582737	750	-nan
0	582737	751	-nan
0	582737	752	-nan
0	582737	753	-nan
0	582737	754	0
0	582737	755	0
0	582737	756	-nan
0	582737	757	-nan
0	582737	758	-nan
0	582737	759	-nan
0	582737	760	-nan
0	582737	761	-nan
0	582737	762	0
0	582737	763	-nan
0	582737	764	-nan
0	582737	765	-nan
0	582737	766	-nan
0	582737	767	0
0	582737	768	-nan
0	582737	769	-nan
0	582737	770	0
0	582737	771	-nan
0	582737	772	-nan
0	582737	773	-nan
0	582737	774	-nan
0	582737	775	0
0	582737	776	0
0	582737	777	-nan
0	582737	778	-nan
0	582737	779	0
0	582737	780	-nan
0	582737	781	0
0	582737	782	0
0	582737	783	-nan
0	582737	784	-nan
0	582737	785	-nan
0	582737	786	-nan
0	582737	787	-nan
0	582737	788	-nan
0	582737	789	-nan
0	582737	790	-nan
0	582737	791	0
0	582737	792	0
0	582737	793	-nan
0	582737	794	-nan
0	582737	795	-nan
0	582737	796	-nan
0	582737	797	-nan
0	582737	798	-nan
0	582737	799	-nan
0	582737	800	-nan
0	582737	801	0
0	582737	802	0
0	582737	803	-nan
0	582737	804	-nan
0	582737	805	-nan
0	582737	806	0
0	582737	807	-nan
0	582737	808	-nan
0	582737	809	-nan
0	582737	810	0
0	582737	811	-nan
0	582737	812	-nan
0	582737	813	-nan
0	582737	814	-nan
0	582737	815	-nan
0	582737	816	-nan
0	582737	817	0
0	582737	818	0
0	582737	819	0
0	582737	820	0
0	582737	821	-nan
0	582737	822	-nan
0	582737	823	0
0	582737	824	-nan
0	582737	825	0
0	582737	826	0
0	582737	827	-nan
0	582737	828	-nan
0	582737	829	-nan
0	582737	830	-nan
0	582737	831	-nan
0	582737	832	-nan
0	582737	833	0
0	582737	834	-nan
0	582737	835	-nan
0	582737	836	-nan
0	582737	837	-nan
0	582737	838	0
0	582737	839	-nan
0	582737	840	-nan
0	582737	841	-nan
0	582737	842	-nan
0	582737	843	-nan
0	582737	844	-nan
0	582737	845	0
0	582737	846	-nan
0	582737	847	0
0	582737	848	-nan
0	582737	849	-nan
0	582737	850	-nan
0	582737	851	-nan
0	582737	852	-nan
0	582737	853	0
0	582737	854	0
0	582737	855	-nan
0	582737	856	0
0	582737	857	-nan
0	582737	858	-nan
0	582737	859	-nan
0	582737	860	0
0	582737	861	0
0	582737	862	-nan
0	582737	863	0
0	582737	864	0
0	582737	865	0
0	582737	866	0
0	582737	867	0
0	582737	868	0
0	582737	869	-nan
0	582737	870	-nan
0	582737	871	-nan
0	582737	872	-nan
0	582737	873	-nan
0	582737	874	-nan
0	582737	875	-nan
0	582737	876	-nan
0	582737	877	-nan
0	582737	878	-nan
0	582737	879	-nan
0	582737	880	0
0	582737	881	0
0	582737	882	-nan
0	582737	883	-nan
0	582737	884	-nan
0	582737	885	-nan
0	582737	886	0
0	582737	887	-nan
0	582737	888	-nan
0	582737	889	-nan
0	582737	890	0
0	582737	891	-nan
0	582737	892	-nan
0	582737	893	0
0	582737	894	-nan
0	582737	895	-nan
0	582737	896	-nan
0	582737	897	-nan
0	582737	898	-nan
0	582737	899	0
0	582737	900	-nan
0	582737	901	-nan
0	582737	902	-nan
0	582737	903	0
0	582737	904	-nan
0	582737	905	-nan
0	582737	906	0
0	582737	907	-nan
0	582737	908	-nan
0	582737	909	-nan
0	582737	910	-nan
0	582737	911	0
0	582737	912	-nan
0	582737	913	-nan
0	582737	914	-nan
0	582737	915	0
0	582737	916	-nan
0	582737	917	-nan
0	582737	918	-nan
0	582737	919	-nan
0	582737	920	-nan
0	582737	921	-nan
0	582737	922	-nan
0	582737	923	-nan
0	582737	924	-nan
0	582737	925	0
0	582737	926	-nan
0	582737	927	-nan
0	582737	928	-nan
0	582737	929	-nan
0	582737	930	-nan
0	582737	931	-nan
0	582737	932	-nan
0	582737	933	1
0	582737	934	-nan
0	582737	935	-nan
0	582737	936	-nan
0	582737	937	-nan
0	582737	938	-nan
0	582737	939	-nan
0	582737	940	-nan
0	582737	941	-nan
0	582737	942	0
0	582737	943	-nan
0	582737	944	0
0	582737	945	-nan
0	582737	946	0
0	582737	947	0
0	582737	948	0
0	582737	949	-nan
0	582737	950	0
0	582737	951	0
0	582737	952	-nan
0	582737	953	0
0	582737	954	-nan
0	582737	955	-nan
0	582737	956	-nan
0	582737	957	-nan
0	582737	958	0
0	582737	959	0
0	582737	960	-nan
0	582737	961	-nan
0	582737	962	-nan
0	582737	963	-nan
0	582737	964	0
0	582737	965	-nan
0	582737	966	0
0	582737	967	0
0	582737	968	-nan
0	582737	969	0
0	582737	970	-nan
0	582737	971	0
0	582737	972	-nan
0	582737	973	-nan
0	582737	974	-nan
0	582737	975	-nan
0	582737	976	-nan
0	582737	977	0
0	582737	978	0
0	582737	979	0
0	582737	980	0
0	582737	981	-nan
0	582737	982	0
0	582737	983	-nan
0	582737	984	-nan
0	582737	985	0
0	582737	986	0
0	582737	987	-nan
0	582737	988	-nan
0	582737	989	-nan
0	582737	990	-nan
0	582737	991	0
0	582737	992	-nan
0	582737	993	-nan
0	582737	994	-nan
0	582737	995	-nan
0	582737	996	-nan
0	582737	997	-nan
0	582737	998	-nan
0	582737	999	-nan
0	582737	1000	-nan
0	582737	1001	-nan
0	582737	1002	0
0	582737	1003	-nan
0	582737	1004	-nan
0	582737	1005	-nan
0	582737	1006	-nan
0	582737	1007	0
0	582737	1008	-nan
0	582737	1009	0
0	582737	1010	-nan
0	582737	1011	0
0	582737	1012	-nan
0	582737	1013	-nan
0	582737	1014	-nan
0	582737	1015	-nan
0	582737	1016	0
0	582737	1017	-nan
0	582737	1018	-nan
0	582737	1019	-nan
0	582737	1020	0
0	582737	1021	-nan
0	582737	1022	-nan
0	582737	1023	-nan
0	582737	1024	0
0	582737	1025	-nan
0	582737	1026	-nan
0	582737	1027	-nan
0	582737	1028	-nan
0	582737	1029	-nan
0	582737	1030	-nan
0	582737	1031	-nan
0	582737	1032	-nan
0	582737	1033	-nan
0	582737	1034	-nan
0	582737	1035	-nan
0	582737	1036	-nan
0	582737	1037	0
0	582737	1038	0
0	582737	1039	-nan
0	582737	1040	-nan
0	582737	1041	-nan
0	582737	1042	-nan
0	582737	1043	0
0	582737	1044	-nan
0	582737	1045	-nan
0	582737	1046	0
0	582737	1047	-nan
0	582737	1048	-nan
0	582737	1049	0
0	582737	1050	0
0	582737	1051	-nan
0	582737	1052	-nan
0	582737	1053	-nan
0	582737	1054	-nan
0	582737	1055	-nan
0	582737	1056	-nan
0	582737	1057	0
0	582737	1058	0
0	582737	1059	-nan
0	582737	1060	-nan
0	582737	1061	-nan
0	582737	1062	0
0	582737	1063	0
0	582737	1064	-nan
0	582737	1065	-nan
0	582737	1066	-nan
0	582737	1067	0
0	582737	1068	-nan
0	582737	1069	-nan
0	582737	1070	-nan
0	582737	1071	-nan
0	582737	1072	-nan
0	582737	1073	-nan
0	582737	1074	-nan
0	582737	1075	-nan
0	582737	1076	-nan
0	582737	1077	0
0	582737	1078	-nan
0	582737	1079	-nan
0	582737	1080	0
0	582737	1081	-nan
0	582737	1082	-nan
0	582737	1083	-nan
0	582737	1084	-nan
0	582737	1085	-nan
0	582737	1086	-nan
0	582737	1087	-nan
0	582737	1088	0
0	582737	1089	0
0	582737	1090	0
0	582737	1091	-nan
0	582737	1092	-nan
0	582737	1093	-nan
0	582737	1094	-nan
0	582737	1095	-nan
0	582737	1096	-nan
0	582737	1097	-nan
0	582737	1098	-nan
0	582737	1099	-nan
0	582737	1100	-nan
0	582737	1101	-nan
0	582737	1102	0
0	582737	1103	-nan
0	582737	1104	-nan
0	582737	1105	-nan
0	582737	1106	-nan
0	582737	1107	-nan
0	582737	1108	-nan
0	582737	1109	-nan
0	582737	1110	-nan
0	582737	1111	-nan
0	582737	1112	0
0	582737	1113	-nan
0	582737	1114	0
0	582737	1115	-nan
0	582737	1116	0
0	582737	1117	-nan
0	582737	1118	0
0	582737	1119	-nan
0	582737	1120	0
0	582737	1121	-nan
0	582737	1122	-nan
0	582737	1123	0
0	582737	1124	-nan
0	582737	1125	0
0	582737	1126	-nan
0	582737	1127	0
0	582737	1128	-nan
0	582737	1129	-nan
0	582737	1130	-nan
0	582737	1131	-nan
0	582737	1132	0
0	582737	1133	-nan
0	582737	1134	0
0	582737	1135	-nan
0	582737	1136	0
0	582737	1137	-nan
0	582737	1138	-nan
0	582737	1139	-nan
0	582737	1140	0
0	582737	1141	0
0	582737	1142	-nan
0	582737	1143	0
0	582737	1144	-nan
0	582737	1145	-nan
0	582737	1146	-nan
0	582737	1147	-nan
0	582737	1148	-nan
0	582737	1149	0
0	582737	1150	-nan
0	582737	1151	0
0	582737	1152	-nan
0	582737	1153	-nan
0	582737	1154	0
0	582737	1155	-nan
0	582737	1156	-nan
0	582737	1157	0
0	582737	1158	-nan
0	582737	1159	-nan
0	582737	1160	-nan
0	582737	1161	-nan
0	582737	1162	-nan
0	582737	1163	-nan
0	582737	1164	-nan
0	582737	1165	-nan
0	582737	1166	-nan
0	582737	1167	0
0	582737	1168	-nan
0	582737	1169	-nan
0	582737	1170	-nan
0	582737	1171	0
0	582737	1172	-nan
0	582737	1173	-nan
0	582737	1174	-nan
0	582737	1175	-nan
0	582737	1176	-nan
0	582737	1177	-nan
0	582737	1178	-nan
0	582737	1179	-nan
0	582737	1180	0
0	582737	1181	-nan
0	582737	1182	-nan
0	582737	1183	-nan
0	582737	1184	-nan
0	582737	1185	-nan
0	582737	1186	-nan
0	582737	1187	-nan
0	582737	1188	0
0	582737	1189	-nan
0	582737	1190	-nan
0	582737	1191	0
0	582737	1192	-nan
0	582737	1193	-nan
0	582737	1194	0
0	582737	1195	0.5
0	582737	1196	-nan
0	582737	1197	-nan
0	582737	1198	-nan
0	582737	1199	0
0	582737	1200	-nan
0	582737	1201	-nan
0	582737	1202	0
0	582737	1203	0
0	582737	1204	0
0	582737	1205	0
0	582737	1206	0
0	582737	1207	-nan
0	582737	1208	-nan
0	582737	1209	0
0	582737	1210	0
0	582737	1211	0
0	582737	1212	-nan
0	582737	1213	-nan
0	582737	1214	-nan
0	582737	1215	0
0	582737	1216	0
0	582737	1217	-nan
0	582737	1218	0
0	582737	1219	-nan
0	582737	1220	-nan
0	582737	1221	-nan
0	582737	1222	0
0	582737	1223	0
0	582737	1224	-nan
0	582737	1225	0
0	582737	1226	-nan
0	582737	1227	0
0	582737	1228	-nan
0	582737	1229	-nan
0	582737	1230	-nan
0	582737	1231	-nan
0	582737	1232	0
0	582737	1233	-nan
0	582737	1234	-nan
0	582737	1235	0
0	582737	1236	-nan
0	582737	1237	-nan
0	582737	1238	-nan
0	582737	1239	-nan
0	582737	1240	-nan
0	582737	1241	-nan
0	582737	1242	-nan
0	582737	1243	-nan
0	582737	1244	0
0	582737	1245	0
0	582737	1246	-nan
0	582737	1247	0
0	582737	1248	0
0	582737	1249	-nan
0	582737	1250	0
0	582737	1251	0
0	582737	1252	-nan
0	582737	1253	-nan
0	582737	1254	-nan
0	582737	1255	-nan
0	582737	1256	-nan
0	582737	1257	-nan
0	582737	1258	0
0	582737	1259	-nan
0	582737	1260	-nan
0	582737	1261	-nan
0	582737	1262	0
0	582737	1263	-nan
0	582737	1264	-nan
0	582737	1265	0
0	582737	1266	-nan
0	582737	1267	-nan
0	582737	1268	0
0	582737	1269	0
0	582737	1270	0
0	582737	1271	-nan
0	582737	1272	-nan
0	582737	1273	-nan
0	582737	1274	-nan
0	582737	1275	-nan
0	582737	1276	0
0	582737	1277	-nan
0	582737	1278	-nan
0	582737	1279	-nan
0	582737	1280	-nan
0	582737	1281	-nan
0	582737	1282	-nan
0	582737	1283	-nan
0	582737	1284	-nan
0	582737	1285	-nan
0	582737	1286	-nan
0	582737	1287	-nan
0	582737	1288	-nan
0	582737	1289	-nan
0	582737	1290	-nan
0	582737	1291	-nan
0	582737	1292	0
0	582737	1293	-nan
0	582737	1294	0
0	582737	1295	0
0	582737	1296	-nan
0	582737	1297	-nan
0	582737	1298	0
0	582737	1299	-nan
0	582737	1300	-nan
0	582737	1301	-nan
0	582737	1302	0
0	582737	1303	-nan
0	582737	1304	0
0	582737	1305	-nan
0	582737	1306	-nan
0	582737	1307	-nan
0	582737	1308	-nan
0	582737	1309	0
0	582737	1310	-nan
0	582737	1311	-nan
0	582737	1312	-nan
0	582737	1313	-nan
0	582737	1314	-nan
0	582737	1315	-nan
0	582737	1316	-nan
0	582737	1317	-nan
0	582737	1318	0
0	582737	1319	0
0	582737	1320	-nan
0	582737	1321	0
0	582737	1322	-nan
0	582737	1323	-nan
0	582737	1324	-nan
0	582737	1325	-nan
0	582737	1326	-nan
0	582737	1327	-nan
0	582737	1328	-nan
0	582737	1329	-nan
0	582737	1330	-nan
0	582737	1331	-nan
0	582737	1332	-nan
0	582737	1333	0
0	582737	1334	0
0	582737	1335	-nan
0	582737	1336	-nan
0	582737	1337	-nan
0	582737	1338	-nan
0	582737	1339	-nan
0	582737	1340	-nan
0	582737	1341	-nan
0	582737	1342	-nan
0	582737	1343	-nan
0	582737	1344	-nan
0	582737	1345	-nan
0	582737	1346	-nan
0	582737	1347	-nan
0	582737	1348	-nan
0	582737	1349	-nan
0	582737	1350	0
0	582737	1351	-nan
0	582737	1352	-nan
0	582737	1353	-nan
0	582737	1354	-nan
0	582737	1355	0
0	582737	1356	0
0	582737	1357	-nan
0	582737	1358	0
0	582737	1359	-nan
0	582737	1360	0
0	582737	1361	-nan
0	582737	1362	-nan
0	582737	1363	0
0	582737	1364	-nan
0	582737	1365	0
0	582737	1366	-nan
0	582737	1367	-nan
0	582737	1368	-nan
0	582737	1369	0
0	582737	1370	-nan
0	582737	1371	-nan
0	582737	1372	-nan
0	582737	1373	-nan
0	582737	1374	-nan
0	582737	1375	-nan
0	582737	1376	-nan
0	582737	1377	-nan
0	582737	1378	-nan
0	582737	1379	-nan
0	582737	1380	-nan
0	582737	1381	-nan
0	582737	1382	-nan
0	582737	1383	0
0	582737	1384	-nan
0	582737	1385	-nan
0	582737	1386	-nan
0	582737	1387	-nan
0	582737	1388	-nan
0	582737	1389	-nan
0	582737	1390	-nan
0	582737	1391	0
0	582737	1392	0
0	582737	1393	-nan
0	582737	1394	-nan
0	582737	1395	-nan
0	582737	1396	-nan
0	582737	1397	-nan
0	582737	1398	0
0	582737	1399	0
0	582737	1400	-nan
0	582737	1401	-nan
0	582737	1402	-nan
0	582737	1403	-nan
0	582737	1404	-nan
0	582737	1405	-nan
0	582737	1406	0
0	582737	1407	-nan
0	582737	1408	-nan
0	582737	1409	-nan
0	582737	1410	0
0	582737	1411	-nan
0	582737	1412	0
0	582737	1413	-nan
0	582737	1414	-nan
0	582737	1415	-nan
0	582737	1416	-nan
0	582737	1417	-nan
0	582737	1418	-nan
0	582737	1419	-nan
0	582737	1420	-nan
0	582737	1421	-nan
0	582737	1422	-nan
0	582737	1423	0
0	582737	1424	-nan
0	582737	1425	-nan
0	582737	1426	-nan
0	582737	1427	-nan
0	582737	1428	-nan
0	582737	1429	-nan
0	582737	1430	-nan
0	582737	1431	-nan
0	582737	1432	-nan
0	582737	1433	-nan
0	582737	1434	-nan
0	582737	1435	-nan
0	582737	1436	0
0	582737	1437	-nan
0	582737	1438	-nan
0	582737	1439	-nan
0	582737	1440	-nan
0	582737	1441	-nan
0	582737	1442	0
0	582737	1443	-nan
0	582737	1444	-nan
0	582737	1445	-nan
0	582737	1446	-nan
0	582737	1447	0
0	582737	1448	-nan
0	582737	1449	-nan
0	582737	1450	-nan
0	582737	1451	-nan
0	582737	1452	-nan
0	582737	1453	-nan
0	582737	1454	-nan
0	582737	1455	0
0	582737	1456	0
0	582737	1457	-nan
0	582737	1458	-nan
0	582737	1459	-nan
0	582737	1460	-nan
0	582737	1461	-nan
0	582737	1462	-nan
0	582737	1463	-nan
0	582737	1464	-nan
0	582737	1465	0
0	582737	1466	-nan
0	582737	1467	-nan
0	582737	1468	-nan
0	582737	1469	-nan
0	582737	1470	-nan
0	582737	1471	0
0	582737	1472	-nan
0	582737	1473	0
0	582737	1474	0
0	582737	1475	-nan
0	582737	1476	-nan
0	582737	1477	-nan
0	582737	1478	0
0	582737	1479	-nan
0	582737	1480	0
0	582737	1481	-nan
0	582737	1482	-nan
0	582737	1483	-nan
0	582737	1484	-nan
0	582737	1485	-nan
0	582737	1486	-nan
0	582737	1487	0
0	582737	1488	-nan
0	582737	1489	0
0	582737	1490	-nan
0	582737	1491	0
0	582737	1492	-nan
0	582737	1493	-nan
0	582737	1494	-nan
0	582737	1495	-nan
0	582737	1496	-nan
0	582737	1497	-nan
0	582737	1498	-nan
0	582737	1499	-nan
0	582737	1500	-nan
0	582737	1501	-nan
0	582737	1502	0
0	582737	1503	-nan
0	582737	1504	0
0	582737	1505	-nan
0	582737	1506	-nan
0	582737	1507	-nan
0	582737	1508	-nan
0	582737	1509	-nan
0	582737	1510	0
0	582737	1511	-nan
0	582737	1512	-nan
0	582737	1513	-nan
0	582737	1514	0
0	582737	1515	-nan
0	582737	1516	1
0	582737	1517	-nan
0	582737	1518	-nan
0	582737	1519	-nan
0	582737	1520	0
0	582737	1521	-nan
0	582737	1522	0
0	582737	1523	-nan
0	582737	1524	-nan
0	582737	1525	-nan
0	582737	1526	-nan
0	582737	1527	-nan
0	582737	1528	-nan
0	582737	1529	0
0	582737	1530	-nan
0	582737	1531	0
0	582737	1532	-nan
0	582737	1533	-nan
0	582737	1534	0
0	582737	1535	0
0	582737	1536	-nan
0	582737	1537	-nan
0	582737	1538	-nan
0	582737	1539	0
0	582737	1540	0
0	582737	1541	0
0	582737	1542	-nan
0	582737	1543	-nan
0	582737	1544	0
0	582737	1545	-nan
0	582737	1546	-nan
0	582737	1547	0
0	582737	1548	0
0	582737	1549	0
0	582737	1550	0
0	582737	1551	0
0	582737	1552	-nan
0	582737	1553	-nan
0	582737	1554	-nan
0	582737	1555	-nan
0	582737	1556	0
0	582737	1557	-nan
0	582737	1558	-nan
0	582737	1559	-nan
0	582737	1560	0
0	582737	1561	0
0	582737	1562	-nan
0	582737	1563	-nan
0	582737	1564	-nan
0	582737	1565	-nan
0	582737	1566	-nan
0	582737	1567	-nan
0	582737	1568	-nan
0	582737	1569	-nan
0	582737	1570	0
0	582737	1571	-nan
0	582737	1572	-nan
0	582737	1573	-nan
0	582737	1574	0
0	582737	1575	-nan
0	582737	1576	-nan
0	582737	1577	0
0	582737	1578	-nan
0	582737	1579	-nan
0	582737	1580	-nan
0	582737	1581	0
0	582737	1582	0
0	582737	1583	-nan
0	582737	1584	-nan
0	582737	1585	-nan
0	582737	1586	-nan
0	582737	1587	-nan
0	582737	1588	0
0	582737	1589	-nan
0	582737	1590	-nan
0	582737	1591	-nan
0	582737	1592	0
0	582737	1593	-nan
0	582737	1594	0
0	582737	1595	-nan
0	582737	1596	-nan
0	582737	1597	-nan
0	582737	1598	-nan
0	582737	1599	-nan
0	582737	1600	-nan
0	582737	1601	0
0	582737	1602	-nan
0	582737	1603	-nan
0	582737	1604	-nan
0	582737	1605	0
0	582737	1606	0
0	582737	1607	-nan
0	582737	1608	-nan
0	582737	1609	-nan
0	582737	1610	-nan
0	582737	1611	-nan
0	582737	1612	0
0	582737	1613	0
0	582737	1614	-nan
0	582737	1615	0
0	582737	1616	-nan
0	582737	1617	-nan
0	582737	1618	-nan
0	582737	1619	-nan
0	582737	1620	-nan
0	582737	1621	0
0	582737	1622	-nan
0	582737	1623	-nan
0	582737	1624	-nan
0	582737	1625	-nan
0	582737	1626	-nan
0	582737	1627	-nan
0	582737	1628	0
0	582737	1629	-nan
0	582737	1630	-nan
0	582737	1631	-nan
0	582737	1632	-nan
0	582737	1633	-nan
0	582737	1634	0
0	582737	1635	-nan
0	582737	1636	0
0	582737	1637	-nan
0	582737	1638	0
0	582737	1639	-nan
0	582737	1640	0
0	582737	1641	0
0	582737	1642	-nan
0	582737	1643	-nan
0	582737	1644	-nan
0	582737	1645	-nan
0	582737	1646	-nan
0	582737	1647	-nan
0	582737	1648	-nan
0	582737	1649	-nan
0	582737	1650	-nan
0	582737	1651	0
0	582737	1652	0
0	582737	1653	-nan
0	582737	1654	-nan
0	582737	1655	-nan
0	582737	1656	-nan
0	582737	1657	-nan
0	582737	1658	-nan
0	582737	1659	0
0	582737	1660	-nan
0	582737	1661	-nan
0	582737	1662	-nan
0	582737	1663	-nan
0	582737	1664	-nan
0	582737	1665	-nan
0	582737	1666	-nan
0	582737	1667	-nan
0	582737	1668	-nan
0	582737	1669	0
0	582737	1670	-nan
0	582737	1671	-nan
0	582737	1672	-nan
0	582737	1673	-nan
0	582737	1674	0
0	582737	1675	-nan
0	582737	1676	-nan
0	582737	1677	-nan
0	582737	1678	-nan
0	582737	1679	-nan
0	582737	1680	-nan
0	582737	1681	-nan
0	582737	1682	0
0	582737	1683	-nan