file 463842756 1397917650                                       
version 2
run General-46-20140419-16:25:53-7375
attr D costprob0.1
attr F nrr
attr R lru
attr a 0.8
attr configname General
attr csize 10
attr ctlg 10^8
attr datetime 20140419-16:25:53
attr experiment General
attr inifile omnetpp.ini
attr iterationvars "$net=simple_scenario, $rep=1, $priceratiovalue=2, $a=0.8, $ctlg=10^8, $F=nrr, $ttl=1000, $D=costprob0.1, $R=lru, $csize=10"
attr iterationvars2 "$net=simple_scenario, $rep=1, $priceratiovalue=2, $a=0.8, $ctlg=10^8, $F=nrr, $ttl=1000, $D=costprob0.1, $R=lru, $csize=10, $repetition=0"
attr measurement "$net=simple_scenario, $rep=1, $priceratiovalue=2, $a=0.8, $ctlg=10^8, $F=nrr, $ttl=1000, $D=costprob0.1, $R=lru, $csize=10"
attr net simple_scenario
attr network networks.${net=simple_scenario}_network
attr priceratiovalue 2
attr processid 7375
attr rep 1
attr repetition 0
attr replication #0
attr resultdir results
attr runnumber 46
attr seedset 1
attr ttl 1000

vector 0  simple_scenario_network.node[0].content_store  hit_node[0]  ETV
0	995 15138629 1322204 1322204 1 699051 699051 0 0.11111111111111 -nan -nan
0	15139624 15746724 1322204 1322204 699052 1398102 699051 0 0 -nan -nan
0	30886348 16058619 1322204 1322204 1398103 2097153 699051 0 0 -nan -nan
0	46944967 16062777 1322204 1322204 2097154 2796204 699051 0 0 -nan -nan
0	63007744 15927132 1322204 1322204 2796205 3489213 693009 0 0 -nan -nan
vector 1  simple_scenario_network.node[1].content_store  hit_node[1]  ETV
1	78934950 15202996 1322204 1322204 1 699051 699051 0 0.125 -nan -nan
1	94137946 15761826 1322204 1322204 699052 1398102 699051 0 0 -nan -nan
1	109899772 16068441 1322204 1322204 1398103 2097153 699051 0 0 -nan -nan
1	125968213 16070493 1322204 1322204 2097154 2796204 699051 0 0 -nan -nan
1	142038706 15933372 1322204 1322204 2796205 3489213 693009 0 0 -nan -nan
vector 2  simple_scenario_network.node[2].content_store  hit_node[2]  ETV
2	157972152 15203860 1322204 1322204 1 699051 699051 0 0.25 -nan -nan
2	173176012 15762123 1322204 1322204 699052 1398102 699051 0 0 -nan -nan
2	188938135 16068351 1322204 1322204 1398103 2097153 699051 0 0 -nan -nan
2	205006486 16070457 1322204 1322204 2097154 2796204 699051 0 0 -nan -nan
2	221076943 15932967 1322204 1322204 2796205 3489213 693009 0 0 -nan -nan
vector 3  simple_scenario_network.node[3].content_store  hit_node[3]  ETV
3	237009984 15202734 1322204 1322204 1 699051 699051 0 0 -nan -nan
3	252212718 15761826 1322204 1322204 699052 1398102 699051 0 0 -nan -nan
3	267974544 16068441 1322204 1322204 1398103 2097153 699051 0 0 -nan -nan
3	284042985 16070493 1322204 1322204 2097154 2796204 699051 0 0 -nan -nan
3	300113478 15933372 1322204 1322204 2796205 3489213 693009 0 0 -nan -nan
vector 4  simple_scenario_network.node[4].content_store  hit_node[4]  ETV
4	316046924 15203571 1322204 1322204 1 699051 699051 0 0 -nan -nan
4	331250495 15762123 1322204 1322204 699052 1398102 699051 0 0 -nan -nan
4	347012618 16068351 1322204 1322204 1398103 2097153 699051 0 0 -nan -nan
4	363080969 16070457 1322204 1322204 2097154 2796204 699051 0 0 -nan -nan
4	379151426 15932967 1322204 1322204 2796205 3489213 693009 0 0 -nan -nan
vector 5  simple_scenario_network.client[0]  hdistance[0]  ETV
5	395084456 13254169 1322204 1322204 1 699051 699051 0 3 129709.71062619 389071.41508996
5	408338625 13681062 1322204 1322204 699052 1398102 699051 0 3 30500.814058018 91501.884836988
5	422019687 13981325 1322204 1322204 1398103 2097153 699051 0 3 19553.943322001 58661.66007935
5	436001012 13981355 1322204 1322204 2097154 2796204 699051 0 3 15395.938122199 46187.628893764
5	449982367 13860389 1322204 1322204 2796205 3489213 693009 0 3 12074.960742738 36224.764559273
