file 463846263 1397917853                                       
version 2
run General-82-20140419-16:29:19-7968
attr D costprob0.1
attr F nrr
attr R lru
attr a 0.8
attr configname General
attr csize 10
attr ctlg 10^8
attr datetime 20140419-16:29:19
attr experiment General
attr inifile omnetpp.ini
attr iterationvars "$net=simple_scenario, $rep=1, $priceratiovalue=5, $a=0.8, $ctlg=10^8, $F=nrr, $ttl=1000, $D=costprob0.1, $R=lru, $csize=10"
attr iterationvars2 "$net=simple_scenario, $rep=1, $priceratiovalue=5, $a=0.8, $ctlg=10^8, $F=nrr, $ttl=1000, $D=costprob0.1, $R=lru, $csize=10, $repetition=0"
attr measurement "$net=simple_scenario, $rep=1, $priceratiovalue=5, $a=0.8, $ctlg=10^8, $F=nrr, $ttl=1000, $D=costprob0.1, $R=lru, $csize=10"
attr net simple_scenario
attr network networks.${net=simple_scenario}_network
attr priceratiovalue 5
attr processid 7968
attr rep 1
attr repetition 0
attr replication #0
attr resultdir results
attr runnumber 82
attr seedset 1
attr ttl 1000

vector 0  simple_scenario_network.node[0].content_store  hit_node[0]  ETV
0	995 15138563 1325073 1325073 1 699051 699051 0 0.33333333333333 -nan -nan
0	15139558 15747003 1325073 1325073 699052 1398102 699051 0 0 -nan -nan
0	30886561 16059060 1325073 1325073 1398103 2097153 699051 0 0 -nan -nan
0	46945621 16062972 1325073 1325073 2097154 2796204 699051 0 0 -nan -nan
0	63008593 15927003 1325073 1325073 2796205 3489213 693009 0 0 -nan -nan
vector 1  simple_scenario_network.node[1].content_store  hit_node[1]  ETV
1	78935670 15202965 1325073 1325073 1 699051 699051 0 0.15686274509804 -nan -nan
1	94138635 15761940 1325073 1325073 699052 1398102 699051 0 0 -nan -nan
1	109900575 16068543 1325073 1325073 1398103 2097153 699051 0 0 -nan -nan
1	125969118 16070388 1325073 1325073 2097154 2796204 699051 0 0 -nan -nan
1	142039506 15933285 1325073 1325073 2796205 3489213 693009 0 0 -nan -nan
vector 2  simple_scenario_network.node[2].content_store  hit_node[2]  ETV
2	157972865 15203732 1325073 1325073 1 699051 699051 0 0.2 -nan -nan
2	173176597 15762288 1325073 1325073 699052 1398102 699051 0 0 -nan -nan
2	188938885 16068690 1325073 1325073 1398103 2097153 699051 0 0 -nan -nan
2	205007575 16070757 1325073 1325073 2097154 2796204 699051 0 0 -nan -nan
2	221078332 15932925 1325073 1325073 2796205 3489213 693009 0 0 -nan -nan
vector 3  simple_scenario_network.node[3].content_store  hit_node[3]  ETV
3	237011331 15202686 1325073 1325073 1 699051 699051 0 0 -nan -nan
3	252214017 15761940 1325073 1325073 699052 1398102 699051 0 0 -nan -nan
3	267975957 16068543 1325073 1325073 1398103 2097153 699051 0 0 -nan -nan
3	284044500 16070388 1325073 1325073 2097154 2796204 699051 0 0 -nan -nan
3	300114888 15933285 1325073 1325073 2796205 3489213 693009 0 0 -nan -nan
vector 4  simple_scenario_network.node[4].content_store  hit_node[4]  ETV
4	316048247 15203547 1325073 1325073 1 699051 699051 0 0 -nan -nan
4	331251794 15762288 1325073 1325073 699052 1398102 699051 0 0 -nan -nan
4	347014082 16068690 1325073 1325073 1398103 2097153 699051 0 0 -nan -nan
4	363082772 16070757 1325073 1325073 2097154 2796204 699051 0 0 -nan -nan
4	379153529 15932925 1325073 1325073 2796205 3489213 693009 0 0 -nan -nan
vector 5  simple_scenario_network.client[0]  hdistance[0]  ETV
5	395086517 13255484 1325073 1325073 1 699051 699051 0 3 129779.34016666 389273.12362767
5	408342001 13681249 1325073 1325073 699052 1398102 699051 0 3 30221.753256731 90664.520260013
5	422023250 13981327 1325073 1325073 1398103 2097153 699051 0 3 19112.937051382 57338.622491958
5	436004577 13981284 1325073 1325073 2097154 2796204 699051 0 3 15200.944820652 45602.669084993
5	449985861 13860402 1325073 1325073 2796205 3489213 693009 0 3 12203.952057736 36611.71249056
