version 2
run General-16-20140102-00:52:08-25383
attr D lce
attr F spr
attr R lru
attr a 1
attr configname General
attr csize 10^2
attr datetime 20140102-00:52:08
attr experiment General
attr inifile omnetpp.ini
attr iterationvars "$net=simple_scenario_cache_at_border, $rep=0, $a=1, $F=spr, $ttl=1000, $D=lce, $R=lru, $csize=10^2"
attr iterationvars2 "$net=simple_scenario_cache_at_border, $rep=0, $a=1, $F=spr, $ttl=1000, $D=lce, $R=lru, $csize=10^2, $repetition=0"
attr measurement "$net=simple_scenario_cache_at_border, $rep=0, $a=1, $F=spr, $ttl=1000, $D=lce, $R=lru, $csize=10^2"
attr net simple_scenario_cache_at_border
attr network networks.${net=simple_scenario_cache_in_the_core,simple_scenario_cache_at_border}_network
attr processid 25383
attr rep 0
attr repetition 0
attr replication #0
attr resultdir results
attr runnumber 16
attr seedset 0
attr ttl 1000

vector 96  simple_scenario_cache_at_border_network.node[0].content_store  hit_node[0]  ETV
96	1274458	1	0
96	1274458	2	0
96	1274458	3	0
96	1274458	4	0
96	1274458	5	0
96	1274458	6	0
96	1274458	7	0
96	1274458	8	0
96	1274458	9	0
96	1274458	10	0
96	1274458	11	0
96	1274458	12	0
96	1274458	13	0
96	1274458	14	0
96	1274458	15	0
96	1274458	16	0
96	1274458	17	0
96	1274458	18	0
96	1274458	19	0
96	1274458	20	0
96	1274458	21	0
96	1274458	22	0
96	1274458	23	0
96	1274458	24	0
96	1274458	25	0
96	1274458	26	0
96	1274458	27	0
96	1274458	28	0
96	1274458	29	0
96	1274458	30	0
96	1274458	31	0
96	1274458	32	0
96	1274458	33	0
96	1274458	34	0
96	1274458	35	0
96	1274458	36	0
96	1274458	37	0
96	1274458	38	0
96	1274458	39	0
96	1274458	40	0
96	1274458	41	0
96	1274458	42	0
96	1274458	43	0
96	1274458	44	0
96	1274458	45	0
96	1274458	46	0
96	1274458	47	0
96	1274458	48	0
96	1274458	49	0
96	1274458	50	0
96	1274458	51	0
96	1274458	52	0
96	1274458	53	0
96	1274458	54	0
96	1274458	55	0
96	1274458	56	0
96	1274458	57	0
96	1274458	58	0
96	1274458	59	0
96	1274458	60	0
96	1274458	61	0
96	1274458	62	0
96	1274458	63	0
96	1274458	64	0
96	1274458	65	0
96	1274458	66	0
96	1274458	67	0
96	1274458	68	0
96	1274458	69	0
96	1274458	70	0
96	1274458	71	0
96	1274458	72	0
96	1274458	73	0
96	1274458	74	0
96	1274458	75	0
96	1274458	76	0
96	1274458	77	0
96	1274458	78	0
96	1274458	79	0
96	1274458	80	0
96	1274458	81	0
96	1274458	82	0
96	1274458	83	0
96	1274458	84	0
96	1274458	85	0
96	1274458	86	0
96	1274458	87	0
96	1274458	88	0
96	1274458	89	0
96	1274458	90	0
96	1274458	91	0
96	1274458	92	0
96	1274458	93	0
96	1274458	94	0
96	1274458	95	0
96	1274458	96	0
96	1274458	97	0
96	1274458	98	0
96	1274458	99	0
96	1274458	100	0
96	1274458	101	0
96	1274458	102	0
96	1274458	103	0
96	1274458	104	0
96	1274458	105	0
96	1274458	106	0
96	1274458	107	0
96	1274458	108	0
96	1274458	109	0
96	1274458	110	0
96	1274458	111	0
96	1274458	112	0
96	1274458	113	0
96	1274458	114	0
96	1274458	115	0
96	1274458	116	0
96	1274458	117	0
96	1274458	118	0
96	1274458	119	0
96	1274458	120	0
96	1274458	121	0
96	1274458	122	0
96	1274458	123	0
96	1274458	124	0
96	1274458	125	0
96	1274458	126	0
96	1274458	127	0
96	1274458	128	0
96	1274458	129	0
96	1274458	130	0
96	1274458	131	0
96	1274458	132	0
96	1274458	133	0
96	1274458	134	0
96	1274458	135	0
96	1274458	136	0
96	1274458	137	0
96	1274458	138	0
96	1274458	139	0
96	1274458	140	0
96	1274458	141	0
96	1274458	142	0
96	1274458	143	0
96	1274458	144	0
96	1274458	145	0
96	1274458	146	0
96	1274458	147	0
96	1274458	148	0
96	1274458	149	0
96	1274458	150	0
96	1274458	151	0
96	1274458	152	0
96	1274458	153	0
96	1274458	154	0
96	1274458	155	0
96	1274458	156	0
96	1274458	157	0
96	1274458	158	0
96	1274458	159	0
96	1274458	160	0
96	1274458	161	0
96	1274458	162	0
96	1274458	163	0
96	1274458	164	0
96	1274458	165	0
96	1274458	166	0
96	1274458	167	0
96	1274458	168	0
96	1274458	169	0
96	1274458	170	0
96	1274458	171	0
96	1274458	172	0
96	1274458	173	0
96	1274458	174	0
96	1274458	175	0
96	1274458	176	0
96	1274458	177	0
96	1274458	178	0
96	1274458	179	0
96	1274458	180	0
96	1274458	181	0
96	1274458	182	0
96	1274458	183	0
96	1274458	184	0
96	1274458	185	0
96	1274458	186	0
96	1274458	187	0
96	1274458	188	0
96	1274458	189	0
96	1274458	190	0
96	1274458	191	0
96	1274458	192	0
96	1274458	193	0
96	1274458	194	0
96	1274458	195	0
96	1274458	196	0
96	1274458	197	0
96	1274458	198	0
96	1274458	199	0
96	1274458	200	0
96	1274458	201	0
96	1274458	202	0
96	1274458	203	0
96	1274458	204	0
96	1274458	205	0
96	1274458	206	0
96	1274458	207	0
96	1274458	208	0
96	1274458	209	0
96	1274458	210	0
96	1274458	211	0
96	1274458	212	0
96	1274458	213	0
96	1274458	214	0
96	1274458	215	0
96	1274458	216	0
96	1274458	217	0
96	1274458	218	0
96	1274458	219	0
96	1274458	220	0
96	1274458	221	0
96	1274458	222	0
96	1274458	223	0
96	1274458	224	0
96	1274458	225	0
96	1274458	226	0
96	1274458	227	0
96	1274458	228	0
96	1274458	229	0
96	1274458	230	0
96	1274458	231	0
96	1274458	232	0
96	1274458	233	0
96	1274458	234	0
96	1274458	235	0
96	1274458	236	0
96	1274458	237	0
96	1274458	238	0
96	1274458	239	0
96	1274458	240	0
96	1274458	241	0
96	1274458	242	0
96	1274458	243	0
96	1274458	244	0
96	1274458	245	0
96	1274458	246	0
96	1274458	247	0
96	1274458	248	0
96	1274458	249	0
96	1274458	250	0
96	1274458	251	0
96	1274458	252	0
96	1274458	253	0
96	1274458	254	0
96	1274458	255	0
96	1274458	256	0
96	1274458	257	0
96	1274458	258	0
96	1274458	259	0
96	1274458	260	0
96	1274458	261	0
96	1274458	262	0
96	1274458	263	0
96	1274458	264	0
96	1274458	265	0
96	1274458	266	0
96	1274458	267	0
96	1274458	268	0
96	1274458	269	0
96	1274458	270	0
96	1274458	271	0
96	1274458	272	0
96	1274458	273	0
96	1274458	274	0
96	1274458	275	0
96	1274458	276	0
96	1274458	277	0
96	1274458	278	0
96	1274458	279	0
96	1274458	280	0
96	1274458	281	0
96	1274458	282	0
96	1274458	283	0
96	1274458	284	0
96	1274458	285	0
96	1274458	286	0
96	1274458	287	0
96	1274458	288	0
96	1274458	289	0
96	1274458	290	0
96	1274458	291	0
96	1274458	292	0
96	1274458	293	0
96	1274458	294	0
96	1274458	295	0
96	1274458	296	0
96	1274458	297	0
96	1274458	298	0
96	1274458	299	0
96	1274458	300	0
96	1274458	301	0
96	1274458	302	0
96	1274458	303	0
96	1274458	304	0
96	1274458	305	0
96	1274458	306	0
96	1274458	307	0
96	1274458	308	0
96	1274458	309	0
96	1274458	310	0
96	1274458	311	0
96	1274458	312	0
96	1274458	313	0
96	1274458	314	0
96	1274458	315	0
96	1274458	316	0
96	1274458	317	0
96	1274458	318	0
96	1274458	319	0
96	1274458	320	0
96	1274458	321	0
96	1274458	322	0
96	1274458	323	0
96	1274458	324	0
96	1274458	325	0
96	1274458	326	0
96	1274458	327	0
96	1274458	328	0
96	1274458	329	0
96	1274458	330	0
96	1274458	331	0
96	1274458	332	0
96	1274458	333	0
96	1274458	334	0
96	1274458	335	0
96	1274458	336	0
96	1274458	337	0
96	1274458	338	0
96	1274458	339	0
96	1274458	340	0
96	1274458	341	0
96	1274458	342	0
96	1274458	343	0
96	1274458	344	0
96	1274458	345	0
96	1274458	346	0
96	1274458	347	0
96	1274458	348	0
96	1274458	349	0
96	1274458	350	0
96	1274458	351	0
96	1274458	352	0
96	1274458	353	0
96	1274458	354	0
96	1274458	355	0
96	1274458	356	0
96	1274458	357	0
96	1274458	358	0
96	1274458	359	0
96	1274458	360	0
96	1274458	361	0
96	1274458	362	0
96	1274458	363	0
96	1274458	364	0
96	1274458	365	0
96	1274458	366	0
96	1274458	367	0
96	1274458	368	0
96	1274458	369	0
96	1274458	370	0
96	1274458	371	0
96	1274458	372	0
96	1274458	373	0
96	1274458	374	0
96	1274458	375	0
96	1274458	376	0
96	1274458	377	0
96	1274458	378	0
96	1274458	379	0
96	1274458	380	0
96	1274458	381	0
96	1274458	382	0
96	1274458	383	0
96	1274458	384	0
96	1274458	385	0
96	1274458	386	0
96	1274458	387	0
96	1274458	388	0
96	1274458	389	0
96	1274458	390	0
96	1274458	391	0
96	1274458	392	0
96	1274458	393	0
96	1274458	394	0
96	1274458	395	0
96	1274458	396	0
96	1274458	397	0
96	1274458	398	0
96	1274458	399	0
96	1274458	400	0
96	1274458	401	0
96	1274458	402	0
96	1274458	403	0
96	1274458	404	0
96	1274458	405	0
96	1274458	406	0
96	1274458	407	0
96	1274458	408	0
96	1274458	409	0
96	1274458	410	0
96	1274458	411	0
96	1274458	412	0
96	1274458	413	0
96	1274458	414	0
96	1274458	415	0
96	1274458	416	0
96	1274458	417	0
96	1274458	418	0
96	1274458	419	0
96	1274458	420	0
96	1274458	421	0
96	1274458	422	0
96	1274458	423	0
96	1274458	424	0
96	1274458	425	0
96	1274458	426	0
96	1274458	427	0
96	1274458	428	0
96	1274458	429	0
96	1274458	430	0
96	1274458	431	0
96	1274458	432	0
96	1274458	433	0
96	1274458	434	0
96	1274458	435	0
96	1274458	436	0
96	1274458	437	0
96	1274458	438	0
96	1274458	439	0
96	1274458	440	0
96	1274458	441	0
96	1274458	442	0
96	1274458	443	0
96	1274458	444	0
96	1274458	445	0
96	1274458	446	0
96	1274458	447	0
96	1274458	448	0
96	1274458	449	0
96	1274458	450	0
96	1274458	451	0
96	1274458	452	0
96	1274458	453	0
96	1274458	454	0
96	1274458	455	0
96	1274458	456	0
96	1274458	457	0
96	1274458	458	0
96	1274458	459	0
96	1274458	460	0
96	1274458	461	0
96	1274458	462	0
96	1274458	463	0
96	1274458	464	0
96	1274458	465	0
96	1274458	466	0
96	1274458	467	0
96	1274458	468	0
96	1274458	469	0
96	1274458	470	0
96	1274458	471	0
96	1274458	472	0
96	1274458	473	0
96	1274458	474	0
96	1274458	475	0
96	1274458	476	0
96	1274458	477	0
96	1274458	478	0
96	1274458	479	0
96	1274458	480	0
96	1274458	481	0
96	1274458	482	0
96	1274458	483	0
96	1274458	484	0
96	1274458	485	0
96	1274458	486	0
96	1274458	487	0
96	1274458	488	0
96	1274458	489	0
96	1274458	490	0
96	1274458	491	0
96	1274458	492	0
96	1274458	493	0
96	1274458	494	0
96	1274458	495	0
96	1274458	496	0
96	1274458	497	0
96	1274458	498	0
96	1274458	499	0
96	1274458	500	0
96	1274458	501	0
96	1274458	502	0
96	1274458	503	0
96	1274458	504	0
96	1274458	505	0
96	1274458	506	0
96	1274458	507	0
96	1274458	508	0
96	1274458	509	0
96	1274458	510	0
96	1274458	511	0
96	1274458	512	0
96	1274458	513	0
96	1274458	514	0
96	1274458	515	0
96	1274458	516	0
96	1274458	517	0
96	1274458	518	0
96	1274458	519	0
96	1274458	520	0
96	1274458	521	0
96	1274458	522	0
96	1274458	523	0
96	1274458	524	0
96	1274458	525	0
96	1274458	526	0
96	1274458	527	0
96	1274458	528	0
96	1274458	529	0
96	1274458	530	0
96	1274458	531	0
96	1274458	532	0
96	1274458	533	0
96	1274458	534	0
96	1274458	535	0
96	1274458	536	0
96	1274458	537	0
96	1274458	538	0
96	1274458	539	0
96	1274458	540	0
96	1274458	541	0
96	1274458	542	0
96	1274458	543	0
96	1274458	544	0
96	1274458	545	0
96	1274458	546	0
96	1274458	547	0
96	1274458	548	0
96	1274458	549	0
96	1274458	550	0
96	1274458	551	0
96	1274458	552	0
96	1274458	553	0
96	1274458	554	0
96	1274458	555	0
96	1274458	556	0
96	1274458	557	0
96	1274458	558	0
96	1274458	559	0
96	1274458	560	0
96	1274458	561	0
96	1274458	562	0
96	1274458	563	0
96	1274458	564	0
96	1274458	565	0
96	1274458	566	0
96	1274458	567	0
96	1274458	568	0
96	1274458	569	0
96	1274458	570	0
96	1274458	571	0
96	1274458	572	0
96	1274458	573	0
96	1274458	574	0
96	1274458	575	0
96	1274458	576	0
96	1274458	577	0
96	1274458	578	0
96	1274458	579	0
96	1274458	580	0
96	1274458	581	0
96	1274458	582	0
96	1274458	583	0
96	1274458	584	0
96	1274458	585	0
96	1274458	586	0
96	1274458	587	0
96	1274458	588	0
96	1274458	589	0
96	1274458	590	0
96	1274458	591	0
96	1274458	592	0
96	1274458	593	0
96	1274458	594	0
96	1274458	595	0
96	1274458	596	0
96	1274458	597	0
96	1274458	598	0
96	1274458	599	0
96	1274458	600	0
96	1274458	601	0
96	1274458	602	0
96	1274458	603	0
96	1274458	604	0
96	1274458	605	0
96	1274458	606	0
96	1274458	607	0
96	1274458	608	0
96	1274458	609	0
96	1274458	610	0
96	1274458	611	0
96	1274458	612	0
96	1274458	613	0
96	1274458	614	0
96	1274458	615	0
96	1274458	616	0
96	1274458	617	0
96	1274458	618	0
96	1274458	619	0
96	1274458	620	0
96	1274458	621	0
96	1274458	622	0
96	1274458	623	0
96	1274458	624	0
96	1274458	625	0
96	1274458	626	0
96	1274458	627	0
96	1274458	628	0
96	1274458	629	0
96	1274458	630	0
96	1274458	631	0
96	1274458	632	0
96	1274458	633	0
96	1274458	634	0
96	1274458	635	0
96	1274458	636	0
96	1274458	637	0
96	1274458	638	0
96	1274458	639	0
96	1274458	640	0
96	1274458	641	0
96	1274458	642	0
96	1274458	643	0
96	1274458	644	0
96	1274458	645	0
96	1274458	646	0
96	1274458	647	0
96	1274458	648	0
96	1274458	649	0
96	1274458	650	0
96	1274458	651	0
96	1274458	652	0
96	1274458	653	0
96	1274458	654	0
96	1274458	655	0
96	1274458	656	0
96	1274458	657	0
96	1274458	658	0
96	1274458	659	0
96	1274458	660	0
96	1274458	661	0
96	1274458	662	0
96	1274458	663	0
96	1274458	664	0
96	1274458	665	0
96	1274458	666	0
96	1274458	667	0
96	1274458	668	0
96	1274458	669	0
96	1274458	670	0
96	1274458	671	0
96	1274458	672	0
96	1274458	673	0
96	1274458	674	0
96	1274458	675	0
96	1274458	676	0
96	1274458	677	0
96	1274458	678	0
96	1274458	679	0
96	1274458	680	0
96	1274458	681	0
96	1274458	682	0
96	1274458	683	0
96	1274458	684	0
96	1274458	685	0
96	1274458	686	0
96	1274458	687	0
96	1274458	688	0
96	1274458	689	0
96	1274458	690	0
96	1274458	691	0
96	1274458	692	0
96	1274458	693	0
96	1274458	694	0
96	1274458	695	0
96	1274458	696	0
96	1274458	697	0
96	1274458	698	0
96	1274458	699	0
96	1274458	700	0
96	1274458	701	0
96	1274458	702	0
96	1274458	703	0
96	1274458	704	0
96	1274458	705	0
96	1274458	706	0
96	1274458	707	0
96	1274458	708	0
96	1274458	709	0
96	1274458	710	0
96	1274458	711	0
96	1274458	712	0
96	1274458	713	0
96	1274458	714	0
96	1274458	715	0
96	1274458	716	0
96	1274458	717	0
96	1274458	718	0
96	1274458	719	0
96	1274458	720	0
96	1274458	721	0
96	1274458	722	0
96	1274458	723	0
96	1274458	724	0
96	1274458	725	0
96	1274458	726	0
96	1274458	727	0
96	1274458	728	0
96	1274458	729	0
96	1274458	730	0
96	1274458	731	0
96	1274458	732	0
96	1274458	733	0
96	1274458	734	0
96	1274458	735	0
96	1274458	736	0
96	1274458	737	0
96	1274458	738	0
96	1274458	739	0
96	1274458	740	0
96	1274458	741	0
96	1274458	742	0
96	1274458	743	0
96	1274458	744	0
96	1274458	745	0
96	1274458	746	0
96	1274458	747	0
96	1274458	748	0
96	1274458	749	0
96	1274458	750	0
vector 97  simple_scenario_cache_at_border_network.node[1].content_store  hit_node[1]  ETV
97	1274458	1	1
97	1274458	2	-nan
97	1274458	3	-nan
97	1274458	4	0.98880248833593
97	1274458	5	-nan
97	1274458	6	-nan
97	1274458	7	-nan
97	1274458	8	-nan
97	1274458	9	-nan
97	1274458	10	-nan
97	1274458	11	-nan
97	1274458	12	0.78236397748593
97	1274458	13	0.75379939209726
97	1274458	14	-nan
97	1274458	15	0.69770253929867
97	1274458	16	0.67232375979112
97	1274458	17	0.67432950191571
97	1274458	18	0.65437158469945
97	1274458	19	0.6
97	1274458	20	-nan
97	1274458	21	0.59010600706714
97	1274458	22	-nan
97	1274458	23	-nan
97	1274458	24	0.55660377358491
97	1274458	25	0.53932584269663
97	1274458	26	-nan
97	1274458	27	-nan
97	1274458	28	-nan
97	1274458	29	-nan
97	1274458	30	0.43719806763285
97	1274458	31	-nan
97	1274458	32	0.44471744471744
97	1274458	33	-nan
97	1274458	34	0.40406976744186
97	1274458	35	-nan
97	1274458	36	-nan
97	1274458	37	0.3596214511041
97	1274458	38	-nan
97	1274458	39	-nan
97	1274458	40	0.33554817275748
97	1274458	41	0.396875
97	1274458	42	-nan
97	1274458	43	0.34163701067616
97	1274458	44	-nan
97	1274458	45	-nan
97	1274458	46	-nan
97	1274458	47	-nan
97	1274458	48	-nan
97	1274458	49	0.32584269662921
97	1274458	50	-nan
97	1274458	51	0.26612903225806
97	1274458	52	-nan
97	1274458	53	-nan
97	1274458	54	-nan
97	1274458	55	-nan
97	1274458	56	0.31726907630522
97	1274458	57	-nan
97	1274458	58	0.23348017621145
97	1274458	59	0.22680412371134
97	1274458	60	-nan
97	1274458	61	-nan
97	1274458	62	0.2485549132948
97	1274458	63	-nan
97	1274458	64	0.27118644067797
97	1274458	65	-nan
97	1274458	66	0.22282608695652
97	1274458	67	0.28205128205128
97	1274458	68	0.29891304347826
97	1274458	69	0.25
97	1274458	70	0.26704545454545
97	1274458	71	-nan
97	1274458	72	-nan
97	1274458	73	0.18452380952381
97	1274458	74	0.28421052631579
97	1274458	75	0.16770186335404
97	1274458	76	-nan
97	1274458	77	-nan
97	1274458	78	0.21656050955414
97	1274458	79	-nan
97	1274458	80	0.19889502762431
97	1274458	81	0.17088607594937
97	1274458	82	-nan
97	1274458	83	0.21052631578947
97	1274458	84	-nan
97	1274458	85	-nan
97	1274458	86	-nan
97	1274458	87	-nan
97	1274458	88	-nan
97	1274458	89	-nan
97	1274458	90	0.18666666666667
97	1274458	91	-nan
97	1274458	92	-nan
97	1274458	93	0.15126050420168
97	1274458	94	0.18032786885246
97	1274458	95	-nan
97	1274458	96	0.18897637795276
97	1274458	97	0.12612612612613
97	1274458	98	-nan
97	1274458	99	-nan
97	1274458	100	0.12037037037037
97	1274458	101	-nan
97	1274458	102	0.14516129032258
97	1274458	103	0.094827586206897
97	1274458	104	-nan
97	1274458	105	0.17293233082707
97	1274458	106	0.18939393939394
97	1274458	107	0.13084112149533
97	1274458	108	-nan
97	1274458	109	-nan
97	1274458	110	0.18897637795276
97	1274458	111	-nan
97	1274458	112	0.12727272727273
97	1274458	113	0.14953271028037
97	1274458	114	0.11764705882353
97	1274458	115	0.15740740740741
97	1274458	116	0.13861386138614
97	1274458	117	-nan
97	1274458	118	0.11818181818182
97	1274458	119	-nan
97	1274458	120	0.10576923076923
97	1274458	121	-nan
97	1274458	122	-nan
97	1274458	123	-nan
97	1274458	124	-nan
97	1274458	125	-nan
97	1274458	126	0.17948717948718
97	1274458	127	-nan
97	1274458	128	-nan
97	1274458	129	-nan
97	1274458	130	-nan
97	1274458	131	0.1010101010101
97	1274458	132	-nan
97	1274458	133	-nan
97	1274458	134	0.12371134020619
97	1274458	135	0.12727272727273
97	1274458	136	-nan
97	1274458	137	0.096385542168675
97	1274458	138	0.12871287128713
97	1274458	139	0.11320754716981
97	1274458	140	0.10185185185185
97	1274458	141	-nan
97	1274458	142	-nan
97	1274458	143	0.0125
97	1274458	144	0.14529914529915
97	1274458	145	-nan
97	1274458	146	0.11340206185567
97	1274458	147	-nan
97	1274458	148	-nan
97	1274458	149	-nan
97	1274458	150	-nan
97	1274458	151	0.13541666666667
97	1274458	152	0.092105263157895
97	1274458	153	0.074074074074074
97	1274458	154	-nan
97	1274458	155	0.093023255813953
97	1274458	156	-nan
97	1274458	157	-nan
97	1274458	158	-nan
97	1274458	159	0.08641975308642
97	1274458	160	-nan
97	1274458	161	0.16455696202532
97	1274458	162	0.064935064935065
97	1274458	163	-nan
97	1274458	164	0.066666666666667
97	1274458	165	-nan
97	1274458	166	-nan
97	1274458	167	0.1125
97	1274458	168	0.17948717948718
97	1274458	169	-nan
97	1274458	170	0.12857142857143
97	1274458	171	-nan
97	1274458	172	0.140625
97	1274458	173	-nan
97	1274458	174	0.13333333333333
97	1274458	175	-nan
97	1274458	176	0.12658227848101
97	1274458	177	-nan
97	1274458	178	0.0625
97	1274458	179	0.08
97	1274458	180	0.079365079365079
97	1274458	181	-nan
97	1274458	182	0.042857142857143
97	1274458	183	-nan
97	1274458	184	0.063492063492063
97	1274458	185	-nan
97	1274458	186	0.064516129032258
97	1274458	187	0.067567567567568
97	1274458	188	0.048387096774194
97	1274458	189	0.0625
97	1274458	190	0.14705882352941
97	1274458	191	-nan
97	1274458	192	0.082191780821918
97	1274458	193	0.05
97	1274458	194	-nan
97	1274458	195	0.088235294117647
97	1274458	196	0.11428571428571
97	1274458	197	0.046875
97	1274458	198	-nan
97	1274458	199	0.061538461538462
97	1274458	200	0.090909090909091
97	1274458	201	-nan
97	1274458	202	0.03030303030303
97	1274458	203	-nan
97	1274458	204	0.092592592592593
97	1274458	205	0.12698412698413
97	1274458	206	-nan
97	1274458	207	-nan
97	1274458	208	0.046153846153846
97	1274458	209	0.10344827586207
97	1274458	210	0.10344827586207
97	1274458	211	-nan
97	1274458	212	-nan
97	1274458	213	0.08955223880597
97	1274458	214	0.033333333333333
97	1274458	215	0.020833333333333
97	1274458	216	0.089285714285714
97	1274458	217	0.019607843137255
97	1274458	218	-nan
97	1274458	219	0.084745762711864
97	1274458	220	-nan
97	1274458	221	0.026315789473684
97	1274458	222	0.042553191489362
97	1274458	223	0.0625
97	1274458	224	-nan
97	1274458	225	-nan
97	1274458	226	-nan
97	1274458	227	0.019230769230769
97	1274458	228	0.10526315789474
97	1274458	229	-nan
97	1274458	230	-nan
97	1274458	231	-nan
97	1274458	232	-nan
97	1274458	233	0.042553191489362
97	1274458	234	0.090909090909091
97	1274458	235	0.058823529411765
97	1274458	236	-nan
97	1274458	237	-nan
97	1274458	238	0.088235294117647
97	1274458	239	-nan
97	1274458	240	0.045454545454545
97	1274458	241	0.067796610169492
97	1274458	242	-nan
97	1274458	243	0.025
97	1274458	244	-nan
97	1274458	245	-nan
97	1274458	246	-nan
97	1274458	247	-nan
97	1274458	248	0.017241379310345
97	1274458	249	0
97	1274458	250	0.021276595744681
97	1274458	251	-nan
97	1274458	252	-nan
97	1274458	253	-nan
97	1274458	254	0.098039215686275
97	1274458	255	-nan
97	1274458	256	-nan
97	1274458	257	-nan
97	1274458	258	-nan
97	1274458	259	0.02
97	1274458	260	0.069767441860465
97	1274458	261	-nan
97	1274458	262	-nan
97	1274458	263	0.028571428571429
97	1274458	264	0.035087719298246
97	1274458	265	0.018518518518519
97	1274458	266	-nan
97	1274458	267	-nan
97	1274458	268	0.026315789473684
97	1274458	269	-nan
97	1274458	270	-nan
97	1274458	271	-nan
97	1274458	272	-nan
97	1274458	273	-nan
97	1274458	274	0.041666666666667
97	1274458	275	0
97	1274458	276	0.056603773584906
97	1274458	277	-nan
97	1274458	278	0.076923076923077
97	1274458	279	-nan
97	1274458	280	0.052631578947368
97	1274458	281	-nan
97	1274458	282	-nan
97	1274458	283	0.087719298245614
97	1274458	284	0.021276595744681
97	1274458	285	0.052631578947368
97	1274458	286	-nan
97	1274458	287	0.060606060606061
97	1274458	288	0.058823529411765
97	1274458	289	-nan
97	1274458	290	-nan
97	1274458	291	-nan
97	1274458	292	-nan
97	1274458	293	0.125
97	1274458	294	-nan
97	1274458	295	0.068181818181818
97	1274458	296	0.023809523809524
97	1274458	297	0.083333333333333
97	1274458	298	0
97	1274458	299	-nan
97	1274458	300	-nan
97	1274458	301	-nan
97	1274458	302	0.044444444444444
97	1274458	303	-nan
97	1274458	304	0.055555555555556
97	1274458	305	0.051282051282051
97	1274458	306	-nan
97	1274458	307	-nan
97	1274458	308	-nan
97	1274458	309	-nan
97	1274458	310	-nan
97	1274458	311	-nan
97	1274458	312	0
97	1274458	313	0.073170731707317
97	1274458	314	-nan
97	1274458	315	-nan
97	1274458	316	-nan
97	1274458	317	-nan
97	1274458	318	-nan
97	1274458	319	-nan
97	1274458	320	-nan
97	1274458	321	-nan
97	1274458	322	-nan
97	1274458	323	-nan
97	1274458	324	0.0625
97	1274458	325	0
97	1274458	326	0.095238095238095
97	1274458	327	0.032258064516129
97	1274458	328	-nan
97	1274458	329	-nan
97	1274458	330	-nan
97	1274458	331	0.035714285714286
97	1274458	332	-nan
97	1274458	333	-nan
97	1274458	334	-nan
97	1274458	335	-nan
97	1274458	336	-nan
97	1274458	337	-nan
97	1274458	338	-nan
97	1274458	339	0.10416666666667
97	1274458	340	0.1063829787234
97	1274458	341	0.027777777777778
97	1274458	342	0.15789473684211
97	1274458	343	-nan
97	1274458	344	-nan
97	1274458	345	0.037037037037037
97	1274458	346	-nan
97	1274458	347	0.12121212121212
97	1274458	348	0
97	1274458	349	-nan
97	1274458	350	0.03125
97	1274458	351	-nan
97	1274458	352	0.048780487804878
97	1274458	353	-nan
97	1274458	354	0
97	1274458	355	0.032258064516129
97	1274458	356	0.060606060606061
97	1274458	357	0.045454545454545
97	1274458	358	-nan
97	1274458	359	-nan
97	1274458	360	-nan
97	1274458	361	0.051282051282051
97	1274458	362	-nan
97	1274458	363	0.05
97	1274458	364	-nan
97	1274458	365	0.024390243902439
97	1274458	366	0.078947368421053
97	1274458	367	0.083333333333333
97	1274458	368	0.028571428571429
97	1274458	369	-nan
97	1274458	370	-nan
97	1274458	371	-nan
97	1274458	372	0.027027027027027
97	1274458	373	-nan
97	1274458	374	0.047619047619048
97	1274458	375	0.068965517241379
97	1274458	376	-nan
97	1274458	377	-nan
97	1274458	378	-nan
97	1274458	379	0.083333333333333
97	1274458	380	-nan
97	1274458	381	-nan
97	1274458	382	0.088235294117647
97	1274458	383	-nan
97	1274458	384	0.05
97	1274458	385	-nan
97	1274458	386	-nan
97	1274458	387	0.060606060606061
97	1274458	388	0.11111111111111
97	1274458	389	-nan
97	1274458	390	-nan
97	1274458	391	0.125
97	1274458	392	-nan
97	1274458	393	-nan
97	1274458	394	-nan
97	1274458	395	-nan
97	1274458	396	-nan
97	1274458	397	-nan
97	1274458	398	0.03448275862069
97	1274458	399	0.033333333333333
97	1274458	400	-nan
97	1274458	401	0.10810810810811
97	1274458	402	-nan
97	1274458	403	0.041666666666667
97	1274458	404	0.10344827586207
97	1274458	405	-nan
97	1274458	406	-nan
97	1274458	407	-nan
97	1274458	408	-nan
97	1274458	409	-nan
97	1274458	410	0.10344827586207
97	1274458	411	-nan
97	1274458	412	-nan
97	1274458	413	-nan
97	1274458	414	0.04
97	1274458	415	0.055555555555556
97	1274458	416	-nan
97	1274458	417	-nan
97	1274458	418	0.038461538461538
97	1274458	419	-nan
97	1274458	420	-nan
97	1274458	421	-nan
97	1274458	422	0
97	1274458	423	0.064516129032258
97	1274458	424	0.066666666666667
97	1274458	425	-nan
97	1274458	426	0
97	1274458	427	0.0625
97	1274458	428	0.055555555555556
97	1274458	429	0.038461538461538
97	1274458	430	0
97	1274458	431	0.083333333333333
97	1274458	432	-nan
97	1274458	433	-nan
97	1274458	434	-nan
97	1274458	435	0.060606060606061
97	1274458	436	0
97	1274458	437	-nan
97	1274458	438	-nan
97	1274458	439	-nan
97	1274458	440	0.03448275862069
97	1274458	441	-nan
97	1274458	442	0
97	1274458	443	-nan
97	1274458	444	0
97	1274458	445	-nan
97	1274458	446	-nan
97	1274458	447	-nan
97	1274458	448	0.076923076923077
97	1274458	449	-nan
97	1274458	450	0
97	1274458	451	0.03448275862069
97	1274458	452	-nan
97	1274458	453	0
97	1274458	454	-nan
97	1274458	455	0
97	1274458	456	0.068965517241379
97	1274458	457	-nan
97	1274458	458	0.027777777777778
97	1274458	459	0
97	1274458	460	0.028571428571429
97	1274458	461	0.038461538461538
97	1274458	462	0.17391304347826
97	1274458	463	0.035714285714286
97	1274458	464	0.10526315789474
97	1274458	465	0.1
97	1274458	466	0.038461538461538
97	1274458	467	-nan
97	1274458	468	0.033333333333333
97	1274458	469	-nan
97	1274458	470	-nan
97	1274458	471	0.068965517241379
97	1274458	472	-nan
97	1274458	473	-nan
97	1274458	474	-nan
97	1274458	475	0
97	1274458	476	0
97	1274458	477	-nan
97	1274458	478	-nan
97	1274458	479	-nan
97	1274458	480	-nan
97	1274458	481	0.043478260869565
97	1274458	482	-nan
97	1274458	483	0.066666666666667
97	1274458	484	-nan
97	1274458	485	0.037037037037037
97	1274458	486	0
97	1274458	487	0
97	1274458	488	0.027777777777778
97	1274458	489	-nan
97	1274458	490	-nan
97	1274458	491	-nan
97	1274458	492	-nan
97	1274458	493	-nan
97	1274458	494	0.076923076923077
97	1274458	495	-nan
97	1274458	496	0.076923076923077
97	1274458	497	-nan
97	1274458	498	0
97	1274458	499	-nan
97	1274458	500	0.045454545454545
97	1274458	501	-nan
97	1274458	502	-nan
97	1274458	503	0.035714285714286
97	1274458	504	0
97	1274458	505	0
97	1274458	506	-nan
97	1274458	507	-nan
97	1274458	508	-nan
97	1274458	509	0.16129032258065
97	1274458	510	0
97	1274458	511	-nan
97	1274458	512	0.17391304347826
97	1274458	513	0.10714285714286
97	1274458	514	-nan
97	1274458	515	0.037037037037037
97	1274458	516	0.04
97	1274458	517	0
97	1274458	518	-nan
97	1274458	519	0
97	1274458	520	-nan
97	1274458	521	0.043478260869565
97	1274458	522	-nan
97	1274458	523	0
97	1274458	524	-nan
97	1274458	525	-nan
97	1274458	526	0.04
97	1274458	527	0.043478260869565
97	1274458	528	-nan
97	1274458	529	0
97	1274458	530	-nan
97	1274458	531	0
97	1274458	532	-nan
97	1274458	533	0.04
97	1274458	534	0.071428571428571
97	1274458	535	0.041666666666667
97	1274458	536	0
97	1274458	537	-nan
97	1274458	538	-nan
97	1274458	539	0
97	1274458	540	-nan
97	1274458	541	0.058823529411765
97	1274458	542	-nan
97	1274458	543	-nan
97	1274458	544	0.076923076923077
97	1274458	545	-nan
97	1274458	546	0
97	1274458	547	0
97	1274458	548	0.074074074074074
97	1274458	549	0
97	1274458	550	0.095238095238095
97	1274458	551	-nan
97	1274458	552	-nan
97	1274458	553	0
97	1274458	554	0
97	1274458	555	0
97	1274458	556	0.035714285714286
97	1274458	557	-nan
97	1274458	558	-nan
97	1274458	559	0.037037037037037
97	1274458	560	0
97	1274458	561	-nan
97	1274458	562	0.038461538461538
97	1274458	563	-nan
97	1274458	564	-nan
97	1274458	565	-nan
97	1274458	566	-nan
97	1274458	567	-nan
97	1274458	568	-nan
97	1274458	569	-nan
97	1274458	570	-nan
97	1274458	571	-nan
97	1274458	572	-nan
97	1274458	573	-nan
97	1274458	574	0.068965517241379
97	1274458	575	0
97	1274458	576	-nan
97	1274458	577	-nan
97	1274458	578	-nan
97	1274458	579	-nan
97	1274458	580	0
97	1274458	581	0.047619047619048
97	1274458	582	-nan
97	1274458	583	0.035714285714286
97	1274458	584	0.11538461538462
97	1274458	585	-nan
97	1274458	586	0.047619047619048
97	1274458	587	-nan
97	1274458	588	0.03125
97	1274458	589	-nan
97	1274458	590	0.045454545454545
97	1274458	591	0
97	1274458	592	-nan
97	1274458	593	0
97	1274458	594	0
97	1274458	595	0.0625
97	1274458	596	0
97	1274458	597	0.041666666666667
97	1274458	598	-nan
97	1274458	599	0
97	1274458	600	-nan
97	1274458	601	0
97	1274458	602	0.058823529411765
97	1274458	603	-nan
97	1274458	604	-nan
97	1274458	605	-nan
97	1274458	606	-nan
97	1274458	607	0.090909090909091
97	1274458	608	0
97	1274458	609	-nan
97	1274458	610	0
97	1274458	611	-nan
97	1274458	612	-nan
97	1274458	613	-nan
97	1274458	614	-nan
97	1274458	615	0.05
97	1274458	616	0
97	1274458	617	-nan
97	1274458	618	0.045454545454545
97	1274458	619	0
97	1274458	620	-nan
97	1274458	621	-nan
97	1274458	622	-nan
97	1274458	623	0
97	1274458	624	0.10526315789474
97	1274458	625	0.058823529411765
97	1274458	626	-nan
97	1274458	627	-nan
97	1274458	628	0
97	1274458	629	-nan
97	1274458	630	0.041666666666667
97	1274458	631	0.125
97	1274458	632	0.090909090909091
97	1274458	633	-nan
97	1274458	634	-nan
97	1274458	635	0
97	1274458	636	-nan
97	1274458	637	0.083333333333333
97	1274458	638	-nan
97	1274458	639	0
97	1274458	640	0.058823529411765
97	1274458	641	-nan
97	1274458	642	0
97	1274458	643	0.041666666666667
97	1274458	644	0.058823529411765
97	1274458	645	0.043478260869565
97	1274458	646	0
97	1274458	647	-nan
97	1274458	648	-nan
97	1274458	649	-nan
97	1274458	650	-nan
97	1274458	651	-nan
97	1274458	652	-nan
97	1274458	653	-nan
97	1274458	654	-nan
97	1274458	655	0
97	1274458	656	0.038461538461538
97	1274458	657	0.055555555555556
97	1274458	658	0
97	1274458	659	-nan
97	1274458	660	-nan
97	1274458	661	-nan
97	1274458	662	-nan
97	1274458	663	0.043478260869565
97	1274458	664	-nan
97	1274458	665	0
97	1274458	666	0.14285714285714
97	1274458	667	-nan
97	1274458	668	-nan
97	1274458	669	-nan
97	1274458	670	0
97	1274458	671	-nan
97	1274458	672	-nan
97	1274458	673	-nan
97	1274458	674	0
97	1274458	675	-nan
97	1274458	676	-nan
97	1274458	677	-nan
97	1274458	678	-nan
97	1274458	679	-nan
97	1274458	680	0
97	1274458	681	0
97	1274458	682	-nan