file 463845853 1397826814                                       
version 2
run General-82-20140418-15:11:55-1515
attr D costprob0.1
attr F nrr
attr R lru
attr a 0.8
attr configname General
attr csize 10
attr ctlg 10^8
attr datetime 20140418-15:11:55
attr experiment General
attr inifile omnetpp.ini
attr iterationvars "$net=simple_scenario, $rep=1, $priceratiovalue=6, $a=0.8, $ctlg=10^8, $F=nrr, $ttl=1000, $D=costprob0.1, $R=lru, $csize=10"
attr iterationvars2 "$net=simple_scenario, $rep=1, $priceratiovalue=6, $a=0.8, $ctlg=10^8, $F=nrr, $ttl=1000, $D=costprob0.1, $R=lru, $csize=10, $repetition=0"
attr measurement "$net=simple_scenario, $rep=1, $priceratiovalue=6, $a=0.8, $ctlg=10^8, $F=nrr, $ttl=1000, $D=costprob0.1, $R=lru, $csize=10"
attr net simple_scenario
attr network networks.${net=simple_scenario}_network
attr priceratiovalue 6
attr processid 1515
attr rep 1
attr repetition 0
attr replication #0
attr resultdir results
attr runnumber 82
attr seedset 1
attr ttl 1000

vector 0  simple_scenario_network.node[0].content_store  hit_node[0]  ETV
0	995 15138725 1329756 1329756 1 699051 699051 0 0.33333333333333 -nan -nan
0	15139720 15747018 1329756 1329756 699052 1398102 699051 0 0 -nan -nan
0	30886738 16058898 1329756 1329756 1398103 2097153 699051 0 0 -nan -nan
0	46945636 16063059 1329756 1329756 2097154 2796204 699051 0 0 -nan -nan
0	63008695 15927024 1329756 1329756 2796205 3489213 693009 0 0 -nan -nan
vector 1  simple_scenario_network.node[1].content_store  hit_node[1]  ETV
1	78935793 15202888 1329756 1329756 1 699051 699051 0 0.21212121212121 -nan -nan
1	94138681 15762003 1329756 1329756 699052 1398102 699051 0 0 -nan -nan
1	109900684 16068369 1329756 1329756 1398103 2097153 699051 0 0 -nan -nan
1	125969053 16070388 1329756 1329756 2097154 2796204 699051 0 0 -nan -nan
1	142039441 15933300 1329756 1329756 2796205 3489213 693009 0 0 -nan -nan
vector 2  simple_scenario_network.node[2].content_store  hit_node[2]  ETV
2	157972815 15203891 1329756 1329756 1 699051 699051 0 0.2 -nan -nan
2	173176706 15762240 1329756 1329756 699052 1398102 699051 0 0 -nan -nan
2	188938946 16068702 1329756 1329756 1398103 2097153 699051 0 0 -nan -nan
2	205007648 16070844 1329756 1329756 2097154 2796204 699051 0 0 -nan -nan
2	221078492 15932931 1329756 1329756 2796205 3489213 693009 0 0 -nan -nan
vector 3  simple_scenario_network.node[3].content_store  hit_node[3]  ETV
3	237011497 15202635 1329756 1329756 1 699051 699051 0 0 -nan -nan
3	252214132 15762003 1329756 1329756 699052 1398102 699051 0 0 -nan -nan
3	267976135 16068369 1329756 1329756 1398103 2097153 699051 0 0 -nan -nan
3	284044504 16070388 1329756 1329756 2097154 2796204 699051 0 0 -nan -nan
3	300114892 15933300 1329756 1329756 2796205 3489213 693009 0 0 -nan -nan
vector 4  simple_scenario_network.node[4].content_store  hit_node[4]  ETV
4	316048266 15203706 1329756 1329756 1 699051 699051 0 0 -nan -nan
4	331251972 15762240 1329756 1329756 699052 1398102 699051 0 0 -nan -nan
4	347014212 16068702 1329756 1329756 1398103 2097153 699051 0 0 -nan -nan
4	363082914 16070844 1329756 1329756 2097154 2796204 699051 0 0 -nan -nan
4	379153758 15932931 1329756 1329756 2796205 3489213 693009 0 0 -nan -nan
vector 5  simple_scenario_network.client[0]  hdistance[0]  ETV
5	395086752 13254887 1329756 1329756 1 699051 699051 0 3 129669.3316521 388937.33854146
5	408341639 13681268 1329756 1329756 699052 1398102 699051 0 3 30206.72910614 90619.375491104
5	422022907 13981300 1329756 1329756 1398103 2097153 699051 0 3 19274.938293558 57824.629955885
5	436004207 13981271 1329756 1329756 2097154 2796204 699051 0 3 15113.942752787 45341.656698925
5	449985478 13860375 1329756 1329756 2796205 3489213 693009 0 3 12182.955020468 36548.730267433
