file 463842916 1397826616                                       
version 2
run General-46-20140418-15:08:39-1462
attr D costprob0.1
attr F nrr
attr R lru
attr a 0.8
attr configname General
attr csize 10
attr ctlg 10^8
attr datetime 20140418-15:08:39
attr experiment General
attr inifile omnetpp.ini
attr iterationvars "$net=simple_scenario, $rep=1, $priceratiovalue=4, $a=0.8, $ctlg=10^8, $F=nrr, $ttl=1000, $D=costprob0.1, $R=lru, $csize=10"
attr iterationvars2 "$net=simple_scenario, $rep=1, $priceratiovalue=4, $a=0.8, $ctlg=10^8, $F=nrr, $ttl=1000, $D=costprob0.1, $R=lru, $csize=10, $repetition=0"
attr measurement "$net=simple_scenario, $rep=1, $priceratiovalue=4, $a=0.8, $ctlg=10^8, $F=nrr, $ttl=1000, $D=costprob0.1, $R=lru, $csize=10"
attr net simple_scenario
attr network networks.${net=simple_scenario}_network
attr priceratiovalue 4
attr processid 1462
attr rep 1
attr repetition 0
attr replication #0
attr resultdir results
attr runnumber 46
attr seedset 1
attr ttl 1000

vector 0  simple_scenario_network.node[0].content_store  hit_node[0]  ETV
0	995 15138159 1325007 1325007 1 699051 699051 0 0.33333333333333 -nan -nan
0	15139154 15746979 1325007 1325007 699052 1398102 699051 0 0 -nan -nan
0	30886133 16058784 1325007 1325007 1398103 2097153 699051 0 0 -nan -nan
0	46944917 16062936 1325007 1325007 2097154 2796204 699051 0 0 -nan -nan
0	63007853 15927153 1325007 1325007 2796205 3489213 693009 0 0 -nan -nan
vector 1  simple_scenario_network.node[1].content_store  hit_node[1]  ETV
1	78935080 15202563 1325007 1325007 1 699051 699051 0 0.14285714285714 -nan -nan
1	94137643 15762093 1325007 1325007 699052 1398102 699051 0 0 -nan -nan
1	109899736 16068426 1325007 1325007 1398103 2097153 699051 0 0 -nan -nan
1	125968162 16070394 1325007 1325007 2097154 2796204 699051 0 0 -nan -nan
1	142038556 15933390 1325007 1325007 2796205 3489213 693009 0 0 -nan -nan
vector 2  simple_scenario_network.node[2].content_store  hit_node[2]  ETV
2	157972020 15203747 1325007 1325007 1 699051 699051 0 0.2 -nan -nan
2	173175767 15762111 1325007 1325007 699052 1398102 699051 0 0 -nan -nan
2	188937878 16068531 1325007 1325007 1398103 2097153 699051 0 0 -nan -nan
2	205006409 16070715 1325007 1325007 2097154 2796204 699051 0 0 -nan -nan
2	221077124 15932970 1325007 1325007 2796205 3489213 693009 0 0 -nan -nan
vector 3  simple_scenario_network.node[3].content_store  hit_node[3]  ETV
3	237010168 15202341 1325007 1325007 1 699051 699051 0 0 -nan -nan
3	252212509 15762093 1325007 1325007 699052 1398102 699051 0 0 -nan -nan
3	267974602 16068426 1325007 1325007 1398103 2097153 699051 0 0 -nan -nan
3	284043028 16070394 1325007 1325007 2097154 2796204 699051 0 0 -nan -nan
3	300113422 15933390 1325007 1325007 2796205 3489213 693009 0 0 -nan -nan
vector 4  simple_scenario_network.node[4].content_store  hit_node[4]  ETV
4	316046886 15203511 1325007 1325007 1 699051 699051 0 0 -nan -nan
4	331250397 15762111 1325007 1325007 699052 1398102 699051 0 0 -nan -nan
4	347012508 16068531 1325007 1325007 1398103 2097153 699051 0 0 -nan -nan
4	363081039 16070715 1325007 1325007 2097154 2796204 699051 0 0 -nan -nan
4	379151754 15932970 1325007 1325007 2796205 3489213 693009 0 0 -nan -nan
vector 5  simple_scenario_network.client[0]  hdistance[0]  ETV
5	395084787 13253873 1325007 1325007 1 699051 699051 0 3 130161.26365564 390422.19970114
5	408338660 13681228 1325007 1325007 699052 1398102 699051 0 3 30245.778200003 90736.669793751
5	422019888 13981340 1325007 1325007 1398103 2097153 699051 0 3 19388.938887107 58166.633486569
5	436001228 13981270 1325007 1325007 2097154 2796204 699051 0 3 15236.95187169 45710.711359105
5	449982498 13860418 1325007 1325007 2796205 3489213 693009 0 3 12053.954771196 36161.728748516
