version 2
run General-14-20150311-18:59:40-28969
attr D prob_cache
attr F spr
attr R lru
attr a 0.8
attr configname General
attr datetime 20150311-18:59:40
attr experiment General
attr inifile omnetpp.ini
attr iterationvars "$net=abilene, $rep=0, $a=0.8, $F=spr, $ttl=1000, $D=prob_cache, $R=lru"
attr iterationvars2 "$net=abilene, $rep=0, $a=0.8, $F=spr, $ttl=1000, $D=prob_cache, $R=lru, $repetition=0"
attr measurement "$net=abilene, $rep=0, $a=0.8, $F=spr, $ttl=1000, $D=prob_cache, $R=lru"
attr net abilene
attr network networks.${net=abilene}_network
attr processid 28969
attr rep 0
attr repetition 0
attr replication #0
attr resultdir results
attr runnumber 14
attr seedset 0
attr ttl 1000

vector 0  abilene_network.node[0].content_store  hit_node[0]  ETV
0	554893	1	1
0	554893	2	1
0	554893	3	1
0	554893	4	1
0	554893	5	1
0	554893	6	0.23076923076923
0	554893	7	1
0	554893	8	0.86666666666667
0	554893	9	1
0	554893	10	1
0	554893	11	1
0	554893	12	1
0	554893	13	0.44444444444444
0	554893	14	1
0	554893	15	0.81818181818182
0	554893	16	0
0	554893	17	0.75
0	554893	18	0.57142857142857
0	554893	19	1
0	554893	20	1
0	554893	21	0.69230769230769
0	554893	22	0
0	554893	23	0
0	554893	24	0
0	554893	25	0
0	554893	26	0.4
0	554893	27	0.5
0	554893	28	-nan
0	554893	29	1
0	554893	30	1
0	554893	31	0.8
0	554893	32	0.71428571428571
0	554893	33	0
0	554893	34	0.2
0	554893	35	0.33333333333333
0	554893	36	0.16666666666667
0	554893	37	0
0	554893	38	1
0	554893	39	0
0	554893	40	0.5
0	554893	41	0
0	554893	42	0
0	554893	43	0.6
0	554893	44	0.4
0	554893	45	1
0	554893	46	0.5
0	554893	47	0
0	554893	48	0
0	554893	49	0
0	554893	50	0.5
0	554893	51	-nan
0	554893	52	0
0	554893	53	0.33333333333333
0	554893	54	0
0	554893	55	0
0	554893	56	0
0	554893	57	0
0	554893	58	0
0	554893	59	0.75
0	554893	60	0.66666666666667
0	554893	61	0
0	554893	62	0
0	554893	63	0
0	554893	64	0
0	554893	65	0
0	554893	66	0
0	554893	67	0
0	554893	68	0
0	554893	69	0.42857142857143
0	554893	70	0.5
0	554893	71	0.66666666666667
0	554893	72	0
0	554893	73	0
0	554893	74	0.66666666666667
0	554893	75	0
0	554893	76	0
0	554893	77	0
0	554893	78	0
0	554893	79	0.6
0	554893	80	0
0	554893	81	0
0	554893	82	0.5
0	554893	83	0
0	554893	84	-nan
0	554893	85	0.75
0	554893	86	0
0	554893	87	-nan
0	554893	88	0
0	554893	89	0
0	554893	90	0
0	554893	91	0
0	554893	92	0
0	554893	93	0
0	554893	94	-nan
0	554893	95	-nan
0	554893	96	0.33333333333333
0	554893	97	0
0	554893	98	0.75
0	554893	99	-nan
0	554893	100	-nan
0	554893	101	0.25
0	554893	102	0
0	554893	103	0.5
0	554893	104	-nan
0	554893	105	0
0	554893	106	0
0	554893	107	0
0	554893	108	0
0	554893	109	0
0	554893	110	0
0	554893	111	0.33333333333333
0	554893	112	0
0	554893	113	0
0	554893	114	0
0	554893	115	-nan
0	554893	116	0
0	554893	117	0.66666666666667
0	554893	118	0
0	554893	119	0
0	554893	120	0
0	554893	121	0
0	554893	122	-nan
0	554893	123	0
0	554893	124	0
0	554893	125	0
0	554893	126	0
0	554893	127	-nan
0	554893	128	0
0	554893	129	0
0	554893	130	0
0	554893	131	-nan
0	554893	132	-nan
0	554893	133	-nan
0	554893	134	-nan
0	554893	135	0
0	554893	136	0
0	554893	137	-nan
0	554893	138	0
0	554893	139	0
0	554893	140	1
0	554893	141	-nan
0	554893	142	0
0	554893	143	-nan
0	554893	144	0
0	554893	145	0
0	554893	146	0
0	554893	147	0
0	554893	148	0
0	554893	149	0
0	554893	150	-nan
0	554893	151	-nan
0	554893	152	0
0	554893	153	0
0	554893	154	0
0	554893	155	-nan
0	554893	156	0
0	554893	157	-nan
0	554893	158	0
0	554893	159	-nan
0	554893	160	0
0	554893	161	0
0	554893	162	0
0	554893	163	0
0	554893	164	0
0	554893	165	-nan
0	554893	166	-nan
0	554893	167	0
0	554893	168	-nan
0	554893	169	-nan
0	554893	170	0
0	554893	171	0
0	554893	172	0
0	554893	173	0.5
0	554893	174	-nan
0	554893	175	0
0	554893	176	0
0	554893	177	0
0	554893	178	0
0	554893	179	-nan
0	554893	180	0
0	554893	181	-nan
0	554893	182	0
0	554893	183	-nan
0	554893	184	0
0	554893	185	0
0	554893	186	0
0	554893	187	0.5
0	554893	188	0
0	554893	189	0
0	554893	190	0
0	554893	191	0
0	554893	192	-nan
0	554893	193	-nan
0	554893	194	-nan
0	554893	195	0
0	554893	196	-nan
0	554893	197	0
0	554893	198	0
0	554893	199	0
0	554893	200	-nan
0	554893	201	0
0	554893	202	0
0	554893	203	-nan
0	554893	204	0
0	554893	205	0
0	554893	206	-nan
0	554893	207	0
0	554893	208	-nan
0	554893	209	-nan
0	554893	210	0
0	554893	211	-nan
0	554893	212	-nan
0	554893	213	0
0	554893	214	-nan
0	554893	215	0
0	554893	216	0
0	554893	217	0.33333333333333
0	554893	218	0
0	554893	219	0
0	554893	220	-nan
0	554893	221	0
0	554893	222	-nan
0	554893	223	0
0	554893	224	0
0	554893	225	0
0	554893	226	-nan
0	554893	227	0
0	554893	228	0.33333333333333
0	554893	229	0
0	554893	230	0
0	554893	231	0
0	554893	232	0
0	554893	233	-nan
0	554893	234	-nan
0	554893	235	-nan
0	554893	236	0
0	554893	237	-nan
0	554893	238	0
0	554893	239	0
0	554893	240	-nan
0	554893	241	0
0	554893	242	0
0	554893	243	-nan
0	554893	244	0
0	554893	245	-nan
0	554893	246	-nan
0	554893	247	-nan
0	554893	248	0
0	554893	249	0
0	554893	250	0
0	554893	251	-nan
0	554893	252	0
0	554893	253	0
0	554893	254	-nan
0	554893	255	-nan
0	554893	256	0
0	554893	257	0
0	554893	258	-nan
0	554893	259	0
0	554893	260	-nan
0	554893	261	-nan
0	554893	262	-nan
0	554893	263	0
0	554893	264	0
0	554893	265	-nan
0	554893	266	-nan
0	554893	267	0
0	554893	268	-nan
0	554893	269	-nan
0	554893	270	-nan
0	554893	271	-nan
0	554893	272	0
0	554893	273	-nan
0	554893	274	-nan
0	554893	275	0
0	554893	276	0
0	554893	277	0
0	554893	278	0.5
0	554893	279	0
0	554893	280	0
0	554893	281	0
0	554893	282	-nan
0	554893	283	0
0	554893	284	0
0	554893	285	-nan
0	554893	286	0
0	554893	287	0
0	554893	288	-nan
0	554893	289	0
0	554893	290	0
0	554893	291	0
0	554893	292	0
0	554893	293	-nan
0	554893	294	-nan
0	554893	295	-nan
0	554893	296	0
0	554893	297	-nan
0	554893	298	0
0	554893	299	-nan
0	554893	300	-nan
0	554893	301	0
0	554893	302	-nan
0	554893	303	-nan
0	554893	304	0
0	554893	305	-nan
0	554893	306	0
0	554893	307	0
0	554893	308	-nan
0	554893	309	0
0	554893	310	0.33333333333333
0	554893	311	0
0	554893	312	0
0	554893	313	0
0	554893	314	-nan
0	554893	315	0
0	554893	316	0
0	554893	317	0
0	554893	318	0
0	554893	319	0
0	554893	320	-nan
0	554893	321	0
0	554893	322	0
0	554893	323	-nan
0	554893	324	-nan
0	554893	325	-nan
0	554893	326	0
0	554893	327	0.33333333333333
0	554893	328	0
0	554893	329	0
0	554893	330	-nan
0	554893	331	-nan
0	554893	332	0
0	554893	333	0
0	554893	334	0
0	554893	335	-nan
0	554893	336	0
0	554893	337	-nan
0	554893	338	-nan
0	554893	339	0
0	554893	340	-nan
0	554893	341	-nan
0	554893	342	-nan
0	554893	343	-nan
0	554893	344	-nan
0	554893	345	0
0	554893	346	0
0	554893	347	0
0	554893	348	0
0	554893	349	0
0	554893	350	0
0	554893	351	-nan
0	554893	352	0
0	554893	353	-nan
0	554893	354	-nan
0	554893	355	-nan
0	554893	356	0
0	554893	357	-nan
0	554893	358	-nan
0	554893	359	-nan
0	554893	360	-nan
0	554893	361	-nan
0	554893	362	0
0	554893	363	-nan
0	554893	364	-nan
0	554893	365	-nan
0	554893	366	-nan
0	554893	367	-nan
0	554893	368	-nan
0	554893	369	0
0	554893	370	-nan
0	554893	371	0
0	554893	372	-nan
0	554893	373	0
0	554893	374	-nan
0	554893	375	0
0	554893	376	-nan
0	554893	377	0
0	554893	378	-nan
0	554893	379	-nan
0	554893	380	-nan
0	554893	381	-nan
0	554893	382	-nan
0	554893	383	0
0	554893	384	-nan
0	554893	385	-nan
0	554893	386	0
0	554893	387	0
0	554893	388	-nan
0	554893	389	0
0	554893	390	0
0	554893	391	-nan
0	554893	392	-nan
0	554893	393	0
0	554893	394	-nan
0	554893	395	0.5
0	554893	396	-nan
0	554893	397	-nan
0	554893	398	-nan
0	554893	399	-nan
0	554893	400	0
0	554893	401	-nan
0	554893	402	-nan
0	554893	403	-nan
0	554893	404	-nan
0	554893	405	-nan
0	554893	406	0
0	554893	407	-nan
0	554893	408	0
0	554893	409	-nan
0	554893	410	0
0	554893	411	-nan
0	554893	412	-nan
0	554893	413	-nan
0	554893	414	0
0	554893	415	-nan
0	554893	416	-nan
0	554893	417	-nan
0	554893	418	0
0	554893	419	-nan
0	554893	420	-nan
0	554893	421	0
0	554893	422	0
0	554893	423	-nan
0	554893	424	0
0	554893	425	0
0	554893	426	-nan
0	554893	427	-nan
0	554893	428	0
0	554893	429	0
0	554893	430	-nan
0	554893	431	-nan
0	554893	432	-nan
0	554893	433	-nan
0	554893	434	0
0	554893	435	0
0	554893	436	0
0	554893	437	-nan
0	554893	438	0
0	554893	439	-nan
0	554893	440	0
0	554893	441	0
0	554893	442	-nan
0	554893	443	0
0	554893	444	0
0	554893	445	-nan
0	554893	446	0
0	554893	447	-nan
0	554893	448	0
0	554893	449	0
0	554893	450	-nan
0	554893	451	0
0	554893	452	0
0	554893	453	0
0	554893	454	-nan
0	554893	455	0
0	554893	456	0.5
0	554893	457	-nan
0	554893	458	-nan
0	554893	459	0
0	554893	460	-nan
0	554893	461	0
0	554893	462	-nan
0	554893	463	-nan
0	554893	464	-nan
0	554893	465	0
0	554893	466	-nan
0	554893	467	0
0	554893	468	0
0	554893	469	-nan
0	554893	470	0
0	554893	471	0
0	554893	472	-nan
0	554893	473	0
0	554893	474	-nan
0	554893	475	0
0	554893	476	0
0	554893	477	-nan
0	554893	478	-nan
0	554893	479	-nan
0	554893	480	0
0	554893	481	0
0	554893	482	0
0	554893	483	-nan
0	554893	484	-nan
0	554893	485	0
0	554893	486	0
0	554893	487	-nan
0	554893	488	-nan
0	554893	489	0
0	554893	490	-nan
0	554893	491	-nan
0	554893	492	0
0	554893	493	-nan
0	554893	494	-nan
0	554893	495	0
0	554893	496	0
0	554893	497	0
0	554893	498	0
0	554893	499	-nan
0	554893	500	-nan
0	554893	501	-nan
0	554893	502	-nan
0	554893	503	0
0	554893	504	-nan
0	554893	505	-nan
0	554893	506	-nan
0	554893	507	0
0	554893	508	-nan
0	554893	509	-nan
0	554893	510	-nan
0	554893	511	0
0	554893	512	0
0	554893	513	-nan
0	554893	514	0
0	554893	515	-nan
0	554893	516	-nan
0	554893	517	-nan
0	554893	518	0
0	554893	519	0
0	554893	520	-nan
0	554893	521	0
0	554893	522	-nan
0	554893	523	-nan
0	554893	524	-nan
0	554893	525	0
0	554893	526	0
0	554893	527	0
0	554893	528	0
0	554893	529	-nan
0	554893	530	-nan
0	554893	531	0
0	554893	532	-nan
0	554893	533	0
0	554893	534	-nan
0	554893	535	-nan
0	554893	536	0
0	554893	537	-nan
0	554893	538	-nan
0	554893	539	-nan
0	554893	540	-nan
0	554893	541	0
0	554893	542	-nan
0	554893	543	-nan
0	554893	544	-nan
0	554893	545	0
0	554893	546	-nan
0	554893	547	-nan
0	554893	548	0
0	554893	549	-nan
0	554893	550	-nan
0	554893	551	-nan
0	554893	552	-nan
0	554893	553	-nan
0	554893	554	0
0	554893	555	-nan
0	554893	556	-nan
0	554893	557	0
0	554893	558	-nan
0	554893	559	-nan
0	554893	560	-nan
0	554893	561	-nan
0	554893	562	-nan
0	554893	563	-nan
0	554893	564	0
0	554893	565	-nan
0	554893	566	0
0	554893	567	-nan
0	554893	568	0
0	554893	569	0
0	554893	570	-nan
0	554893	571	0
0	554893	572	-nan
0	554893	573	0
0	554893	574	-nan
0	554893	575	-nan
0	554893	576	-nan
0	554893	577	-nan
0	554893	578	-nan
0	554893	579	0
0	554893	580	-nan
0	554893	581	-nan
0	554893	582	0
0	554893	583	-nan
0	554893	584	-nan
0	554893	585	-nan
0	554893	586	0
0	554893	587	0
0	554893	588	-nan
0	554893	589	-nan
0	554893	590	-nan
0	554893	591	-nan
0	554893	592	-nan
0	554893	593	-nan
0	554893	594	0
0	554893	595	-nan
0	554893	596	-nan
0	554893	597	-nan
0	554893	598	0
0	554893	599	-nan
0	554893	600	0
0	554893	601	-nan
0	554893	602	-nan
0	554893	603	-nan
0	554893	604	-nan
vector 1  abilene_network.node[1].content_store  hit_node[1]  ETV
1	554893	1	1
1	554893	2	0.64864864864865
1	554893	3	0.82608695652174
1	554893	4	1
1	554893	5	0.94736842105263
1	554893	6	1
1	554893	7	0.66666666666667
1	554893	8	0.52941176470588
1	554893	9	0.7
1	554893	10	0
1	554893	11	0.5625
1	554893	12	0.2
1	554893	13	0.25
1	554893	14	0.18181818181818
1	554893	15	0
1	554893	16	0.6
1	554893	17	0
1	554893	18	0
1	554893	19	0.6
1	554893	20	0
1	554893	21	0.15384615384615
1	554893	22	0.83333333333333
1	554893	23	0.58333333333333
1	554893	24	0
1	554893	25	0
1	554893	26	0.25
1	554893	27	0.4
1	554893	28	0.25
1	554893	29	0.18181818181818
1	554893	30	0
1	554893	31	0
1	554893	32	0.58333333333333
1	554893	33	0.28571428571429
1	554893	34	0.41666666666667
1	554893	35	0.66666666666667
1	554893	36	0.1
1	554893	37	0.13333333333333
1	554893	38	0
1	554893	39	0
1	554893	40	0.125
1	554893	41	0.4
1	554893	42	0
1	554893	43	0
1	554893	44	0.625
1	554893	45	0.1
1	554893	46	0
1	554893	47	0.5
1	554893	48	0.6
1	554893	49	0.25
1	554893	50	0
1	554893	51	0.33333333333333
1	554893	52	0.3
1	554893	53	0
1	554893	54	0
1	554893	55	0
1	554893	56	0.57142857142857
1	554893	57	0
1	554893	58	0.4
1	554893	59	0.42857142857143
1	554893	60	0
1	554893	61	0.66666666666667
1	554893	62	0
1	554893	63	0.5
1	554893	64	0
1	554893	65	0.5
1	554893	66	0.125
1	554893	67	0.125
1	554893	68	0.6
1	554893	69	0.36363636363636
1	554893	70	0.22222222222222
1	554893	71	0
1	554893	72	0.25
1	554893	73	0
1	554893	74	0.25
1	554893	75	0
1	554893	76	0.5
1	554893	77	0.25
1	554893	78	0.4
1	554893	79	0
1	554893	80	0.2
1	554893	81	0.16666666666667
1	554893	82	0
1	554893	83	0.14285714285714
1	554893	84	0
1	554893	85	0
1	554893	86	0
1	554893	87	0
1	554893	88	0
1	554893	89	0.16666666666667
1	554893	90	0
1	554893	91	0
1	554893	92	0
1	554893	93	0.6
1	554893	94	0.2
1	554893	95	0
1	554893	96	0
1	554893	97	0.33333333333333
1	554893	98	0
1	554893	99	0
1	554893	100	0.2
1	554893	101	0
1	554893	102	0
1	554893	103	0.33333333333333
1	554893	104	0
1	554893	105	0
1	554893	106	0
1	554893	107	0
1	554893	108	0.25
1	554893	109	0.25
1	554893	110	0
1	554893	111	0
1	554893	112	0
1	554893	113	0
1	554893	114	0
1	554893	115	0
1	554893	116	0
1	554893	117	0
1	554893	118	0.28571428571429
1	554893	119	0
1	554893	120	0
1	554893	121	0
1	554893	122	0
1	554893	123	0
1	554893	124	0
1	554893	125	0
1	554893	126	0
1	554893	127	0
1	554893	128	0
1	554893	129	0
1	554893	130	0.14285714285714
1	554893	131	0
1	554893	132	0
1	554893	133	0
1	554893	134	0
1	554893	135	0
1	554893	136	0
1	554893	137	0
1	554893	138	0
1	554893	139	0.33333333333333
1	554893	140	-nan
1	554893	141	0
1	554893	142	0.33333333333333
1	554893	143	0
1	554893	144	0
1	554893	145	0
1	554893	146	0
1	554893	147	0
1	554893	148	0
1	554893	149	0
1	554893	150	0
1	554893	151	0
1	554893	152	0
1	554893	153	0
1	554893	154	0
1	554893	155	0
1	554893	156	0
1	554893	157	-nan
1	554893	158	0
1	554893	159	0
1	554893	160	0
1	554893	161	0
1	554893	162	0
1	554893	163	0
1	554893	164	0
1	554893	165	0
1	554893	166	0
1	554893	167	0
1	554893	168	0
1	554893	169	0
1	554893	170	0.2
1	554893	171	0
1	554893	172	0
1	554893	173	0
1	554893	174	0
1	554893	175	0
1	554893	176	0
1	554893	177	0
1	554893	178	0
1	554893	179	0
1	554893	180	0
1	554893	181	-nan
1	554893	182	0
1	554893	183	0
1	554893	184	0
1	554893	185	0
1	554893	186	0
1	554893	187	0
1	554893	188	0
1	554893	189	0.25
1	554893	190	0
1	554893	191	0
1	554893	192	0
1	554893	193	0
1	554893	194	0
1	554893	195	0
1	554893	196	0
1	554893	197	0
1	554893	198	0
1	554893	199	0
1	554893	200	0
1	554893	201	0
1	554893	202	0.66666666666667
1	554893	203	-nan
1	554893	204	0
1	554893	205	0.5
1	554893	206	-nan
1	554893	207	0
1	554893	208	0
1	554893	209	0
1	554893	210	0
1	554893	211	0
1	554893	212	0
1	554893	213	0
1	554893	214	0
1	554893	215	0
1	554893	216	0
1	554893	217	0
1	554893	218	0
1	554893	219	0
1	554893	220	0
1	554893	221	0
1	554893	222	0
1	554893	223	0
1	554893	224	0
1	554893	225	0
1	554893	226	0
1	554893	227	0.33333333333333
1	554893	228	0
1	554893	229	0
1	554893	230	0
1	554893	231	0
1	554893	232	0
1	554893	233	0
1	554893	234	0
1	554893	235	0
1	554893	236	0
1	554893	237	0
1	554893	238	0
1	554893	239	0
1	554893	240	0
1	554893	241	0
1	554893	242	0
1	554893	243	0
1	554893	244	0
1	554893	245	0
1	554893	246	0
1	554893	247	0
1	554893	248	0
1	554893	249	0
1	554893	250	0.33333333333333
1	554893	251	-nan
1	554893	252	0
1	554893	253	0
1	554893	254	0
1	554893	255	0
1	554893	256	0
1	554893	257	0
1	554893	258	0
1	554893	259	0
1	554893	260	0
1	554893	261	-nan
1	554893	262	0
1	554893	263	0
1	554893	264	0
1	554893	265	0
1	554893	266	0
1	554893	267	0
1	554893	268	-nan
1	554893	269	-nan
1	554893	270	0
1	554893	271	0
1	554893	272	0.33333333333333
1	554893	273	0
1	554893	274	0
1	554893	275	0
1	554893	276	0
1	554893	277	0
1	554893	278	0.2
1	554893	279	0
1	554893	280	0
1	554893	281	0
1	554893	282	0
1	554893	283	0
1	554893	284	0
1	554893	285	0
1	554893	286	0
1	554893	287	0
1	554893	288	0
1	554893	289	0.33333333333333
1	554893	290	0
1	554893	291	0
1	554893	292	0
1	554893	293	0
1	554893	294	0
1	554893	295	-nan
1	554893	296	0
1	554893	297	0
1	554893	298	0
1	554893	299	0
1	554893	300	0
1	554893	301	0
1	554893	302	0
1	554893	303	0
1	554893	304	0
1	554893	305	0
1	554893	306	0
1	554893	307	0.33333333333333
1	554893	308	0
1	554893	309	0
1	554893	310	0
1	554893	311	0
1	554893	312	0
1	554893	313	0
1	554893	314	0
1	554893	315	0
1	554893	316	0
1	554893	317	0.5
1	554893	318	0.33333333333333
1	554893	319	0.2
1	554893	320	0
1	554893	321	0
1	554893	322	0.5
1	554893	323	0
1	554893	324	0
1	554893	325	0
1	554893	326	0
1	554893	327	0
1	554893	328	0
1	554893	329	0
1	554893	330	0
1	554893	331	0
1	554893	332	0
1	554893	333	0
1	554893	334	0
1	554893	335	0
1	554893	336	0
1	554893	337	0
1	554893	338	-nan
1	554893	339	0
1	554893	340	0
1	554893	341	-nan
1	554893	342	0
1	554893	343	-nan
1	554893	344	0.5
1	554893	345	0
1	554893	346	0
1	554893	347	0
1	554893	348	0
1	554893	349	0
1	554893	350	0
1	554893	351	0
1	554893	352	0
1	554893	353	0
1	554893	354	-nan
1	554893	355	0
1	554893	356	0
1	554893	357	0
1	554893	358	0
1	554893	359	0
1	554893	360	-nan
1	554893	361	0
1	554893	362	0
1	554893	363	-nan
1	554893	364	-nan
1	554893	365	-nan
1	554893	366	0.33333333333333
1	554893	367	0
1	554893	368	0.25
1	554893	369	1
1	554893	370	0
1	554893	371	0.33333333333333
1	554893	372	-nan
1	554893	373	0
1	554893	374	0
1	554893	375	0.25
1	554893	376	0.5
1	554893	377	0
1	554893	378	0
1	554893	379	-nan
1	554893	380	0.33333333333333
1	554893	381	0
1	554893	382	0
1	554893	383	0
1	554893	384	0
1	554893	385	0
1	554893	386	0
1	554893	387	0
1	554893	388	-nan
1	554893	389	0
1	554893	390	0
1	554893	391	0
1	554893	392	0
1	554893	393	0
1	554893	394	-nan
1	554893	395	0
1	554893	396	0
1	554893	397	0
1	554893	398	-nan
1	554893	399	0
1	554893	400	0
1	554893	401	-nan
1	554893	402	0
1	554893	403	0
1	554893	404	0
1	554893	405	-nan
1	554893	406	0
1	554893	407	0
1	554893	408	0
1	554893	409	0
1	554893	410	0
1	554893	411	-nan
1	554893	412	-nan
1	554893	413	0
1	554893	414	0
1	554893	415	-nan
1	554893	416	0
1	554893	417	0
1	554893	418	0
1	554893	419	-nan
1	554893	420	0
1	554893	421	0
1	554893	422	0
1	554893	423	0
1	554893	424	0
1	554893	425	0
1	554893	426	-nan
1	554893	427	-nan
1	554893	428	0
1	554893	429	0
1	554893	430	0
1	554893	431	0
1	554893	432	-nan
1	554893	433	0
1	554893	434	0
1	554893	435	0.33333333333333
1	554893	436	0
1	554893	437	0
1	554893	438	0
1	554893	439	-nan
1	554893	440	0
1	554893	441	0
1	554893	442	0
1	554893	443	0
1	554893	444	0
1	554893	445	0
1	554893	446	0
1	554893	447	0
1	554893	448	0
1	554893	449	0.33333333333333
1	554893	450	0
1	554893	451	0
1	554893	452	0
1	554893	453	0
1	554893	454	0
1	554893	455	0
1	554893	456	0
1	554893	457	-nan
1	554893	458	-nan
1	554893	459	0.33333333333333
1	554893	460	-nan
1	554893	461	0.16666666666667
1	554893	462	0
1	554893	463	-nan
1	554893	464	-nan
1	554893	465	0
1	554893	466	-nan
1	554893	467	0.5
1	554893	468	0
1	554893	469	0
1	554893	470	0
1	554893	471	0
1	554893	472	0
1	554893	473	0
1	554893	474	0
1	554893	475	0
1	554893	476	0
1	554893	477	0
1	554893	478	0
1	554893	479	0
1	554893	480	0
1	554893	481	0
1	554893	482	0
1	554893	483	-nan
1	554893	484	0
1	554893	485	0
1	554893	486	0
1	554893	487	-nan
1	554893	488	0
1	554893	489	0
1	554893	490	0
1	554893	491	-nan
1	554893	492	0
1	554893	493	0
1	554893	494	0
1	554893	495	0.33333333333333
1	554893	496	0
1	554893	497	0
1	554893	498	0
1	554893	499	0
1	554893	500	-nan
1	554893	501	0
1	554893	502	-nan
1	554893	503	0
1	554893	504	0
1	554893	505	0
1	554893	506	0
1	554893	507	0
1	554893	508	0
1	554893	509	-nan
1	554893	510	0
1	554893	511	0
1	554893	512	0
1	554893	513	-nan
1	554893	514	0
1	554893	515	0
1	554893	516	-nan
1	554893	517	-nan
1	554893	518	0
1	554893	519	0
1	554893	520	0
1	554893	521	0
1	554893	522	-nan
1	554893	523	0
1	554893	524	-nan
1	554893	525	0
1	554893	526	0
1	554893	527	0
1	554893	528	0
1	554893	529	0
1	554893	530	-nan
1	554893	531	0
1	554893	532	-nan
1	554893	533	0
1	554893	534	-nan
1	554893	535	0
1	554893	536	0
1	554893	537	-nan
1	554893	538	0
1	554893	539	-nan
1	554893	540	-nan
1	554893	541	0
1	554893	542	0
1	554893	543	0
1	554893	544	0
1	554893	545	0
1	554893	546	-nan
1	554893	547	-nan
1	554893	548	0
1	554893	549	0
1	554893	550	-nan
1	554893	551	0
1	554893	552	0
1	554893	553	0
1	554893	554	0
1	554893	555	-nan
1	554893	556	0
1	554893	557	0
1	554893	558	-nan
1	554893	559	-nan
1	554893	560	0
1	554893	561	-nan
1	554893	562	-nan
1	554893	563	-nan
1	554893	564	0
1	554893	565	-nan
1	554893	566	0
1	554893	567	0
1	554893	568	0
1	554893	569	0
1	554893	570	-nan
1	554893	571	0
1	554893	572	0
1	554893	573	0
1	554893	574	0
1	554893	575	0
1	554893	576	0
1	554893	577	0
1	554893	578	0
1	554893	579	0
1	554893	580	-nan
1	554893	581	0
1	554893	582	0
1	554893	583	-nan
1	554893	584	0
1	554893	585	0
1	554893	586	0
1	554893	587	0
1	554893	588	0
1	554893	589	-nan
1	554893	590	-nan
1	554893	591	0
1	554893	592	0
1	554893	593	0
1	554893	594	0
1	554893	595	0
1	554893	596	-nan
1	554893	597	0
1	554893	598	0
1	554893	599	0
1	554893	600	0
1	554893	601	0
1	554893	602	0
1	554893	603	0
1	554893	604	0
vector 2  abilene_network.node[2].content_store  hit_node[2]  ETV
2	554893	1	1
2	554893	2	0.91525423728814
2	554893	3	0.82352941176471
2	554893	4	0.79166666666667
2	554893	5	0.76470588235294
2	554893	6	0.69230769230769
2	554893	7	0.15
2	554893	8	0.41176470588235
2	554893	9	0.5
2	554893	10	0.66666666666667
2	554893	11	0.27272727272727
2	554893	12	0.10526315789474
2	554893	13	0.4
2	554893	14	0.30769230769231
2	554893	15	0.15384615384615
2	554893	16	0.64285714285714
2	554893	17	0.090909090909091
2	554893	18	0
2	554893	19	0
2	554893	20	0.58333333333333
2	554893	21	0.57894736842105
2	554893	22	0.11111111111111
2	554893	23	0.18181818181818
2	554893	24	0.23076923076923
2	554893	25	0.53846153846154
2	554893	26	0.66666666666667
2	554893	27	0.2
2	554893	28	0
2	554893	29	0.41176470588235
2	554893	30	0.27272727272727
2	554893	31	0.63636363636364
2	554893	32	0.11111111111111
2	554893	33	0.16666666666667
2	554893	34	0.2
2	554893	35	0.375
2	554893	36	0
2	554893	37	0.8
2	554893	38	0
2	554893	39	0.25
2	554893	40	0.5
2	554893	41	0
2	554893	42	0
2	554893	43	0
2	554893	44	0
2	554893	45	0.33333333333333
2	554893	46	0.53846153846154
2	554893	47	0
2	554893	48	0.2
2	554893	49	0
2	554893	50	0
2	554893	51	0
2	554893	52	0.090909090909091
2	554893	53	0
2	554893	54	0.16666666666667
2	554893	55	0.13333333333333
2	554893	56	0
2	554893	57	0.16666666666667
2	554893	58	0
2	554893	59	0
2	554893	60	0
2	554893	61	0
2	554893	62	0.5
2	554893	63	0
2	554893	64	0
2	554893	65	0
2	554893	66	0.33333333333333
2	554893	67	0.11111111111111
2	554893	68	0
2	554893	69	0.25
2	554893	70	0.125
2	554893	71	0
2	554893	72	0
2	554893	73	0.11111111111111
2	554893	74	0
2	554893	75	0
2	554893	76	0
2	554893	77	0.22222222222222
2	554893	78	0.4
2	554893	79	0
2	554893	80	0
2	554893	81	0.16666666666667
2	554893	82	0.5
2	554893	83	0.11111111111111
2	554893	84	0
2	554893	85	0.1
2	554893	86	0
2	554893	87	0
2	554893	88	0
2	554893	89	0.33333333333333
2	554893	90	0
2	554893	91	0.375
2	554893	92	0
2	554893	93	0
2	554893	94	0
2	554893	95	0
2	554893	96	0.125
2	554893	97	0
2	554893	98	0
2	554893	99	0.33333333333333
2	554893	100	0
2	554893	101	0.2
2	554893	102	0
2	554893	103	0
2	554893	104	0
2	554893	105	0
2	554893	106	0
2	554893	107	0.16666666666667
2	554893	108	0.16666666666667
2	554893	109	0
2	554893	110	0
2	554893	111	0
2	554893	112	0
2	554893	113	0
2	554893	114	0
2	554893	115	0
2	554893	116	0
2	554893	117	0.33333333333333
2	554893	118	0
2	554893	119	0
2	554893	120	0.14285714285714
2	554893	121	0
2	554893	122	0
2	554893	123	0.33333333333333
2	554893	124	0.125
2	554893	125	0
2	554893	126	0
2	554893	127	0
2	554893	128	0.2
2	554893	129	0
2	554893	130	0.375
2	554893	131	0
2	554893	132	0
2	554893	133	0.11111111111111
2	554893	134	0
2	554893	135	0.11111111111111
2	554893	136	0
2	554893	137	0
2	554893	138	0
2	554893	139	0
2	554893	140	-nan
2	554893	141	0.25
2	554893	142	0
2	554893	143	0
2	554893	144	0
2	554893	145	0
2	554893	146	0
2	554893	147	0
2	554893	148	0.2
2	554893	149	0
2	554893	150	0.25
2	554893	151	0
2	554893	152	0.6
2	554893	153	0
2	554893	154	0.25
2	554893	155	0
2	554893	156	0
2	554893	157	-nan
2	554893	158	0
2	554893	159	0
2	554893	160	0
2	554893	161	0
2	554893	162	0
2	554893	163	0
2	554893	164	0
2	554893	165	0
2	554893	166	0
2	554893	167	0
2	554893	168	0
2	554893	169	0
2	554893	170	0
2	554893	171	0.28571428571429
2	554893	172	0
2	554893	173	0
2	554893	174	0
2	554893	175	0
2	554893	176	0.25
2	554893	177	0
2	554893	178	0
2	554893	179	0
2	554893	180	0
2	554893	181	0
2	554893	182	0
2	554893	183	0
2	554893	184	0.5
2	554893	185	0
2	554893	186	0.14285714285714
2	554893	187	0
2	554893	188	0
2	554893	189	0
2	554893	190	0
2	554893	191	0.16666666666667
2	554893	192	0
2	554893	193	0
2	554893	194	0
2	554893	195	0
2	554893	196	0
2	554893	197	0
2	554893	198	0
2	554893	199	0
2	554893	200	0
2	554893	201	0
2	554893	202	0
2	554893	203	-nan
2	554893	204	0
2	554893	205	0
2	554893	206	0
2	554893	207	0
2	554893	208	0
2	554893	209	0
2	554893	210	0
2	554893	211	0
2	554893	212	0
2	554893	213	0
2	554893	214	0
2	554893	215	0
2	554893	216	0
2	554893	217	0
2	554893	218	0
2	554893	219	0.14285714285714
2	554893	220	0
2	554893	221	0
2	554893	222	0.33333333333333
2	554893	223	0.25
2	554893	224	0
2	554893	225	0
2	554893	226	0
2	554893	227	0
2	554893	228	0
2	554893	229	0
2	554893	230	0
2	554893	231	0.16666666666667
2	554893	232	0
2	554893	233	0.16666666666667
2	554893	234	0
2	554893	235	0
2	554893	236	0
2	554893	237	0
2	554893	238	0
2	554893	239	0
2	554893	240	0
2	554893	241	0
2	554893	242	0
2	554893	243	0.25
2	554893	244	0
2	554893	245	0
2	554893	246	0
2	554893	247	0
2	554893	248	0
2	554893	249	0
2	554893	250	0
2	554893	251	0
2	554893	252	0
2	554893	253	0
2	554893	254	0
2	554893	255	0
2	554893	256	0
2	554893	257	0
2	554893	258	0
2	554893	259	0
2	554893	260	0
2	554893	261	-nan
2	554893	262	0
2	554893	263	0
2	554893	264	0
2	554893	265	0
2	554893	266	0
2	554893	267	0.2
2	554893	268	-nan
2	554893	269	-nan
2	554893	270	0
2	554893	271	0
2	554893	272	0
2	554893	273	0.2
2	554893	274	0
2	554893	275	0
2	554893	276	0
2	554893	277	0
2	554893	278	0.2
2	554893	279	0
2	554893	280	0.66666666666667
2	554893	281	0
2	554893	282	0
2	554893	283	0
2	554893	284	0.25
2	554893	285	0.25
2	554893	286	0
2	554893	287	0
2	554893	288	0
2	554893	289	0
2	554893	290	0
2	554893	291	0
2	554893	292	0
2	554893	293	0
2	554893	294	0
2	554893	295	0
2	554893	296	0
2	554893	297	0
2	554893	298	0
2	554893	299	0
2	554893	300	0
2	554893	301	0
2	554893	302	0
2	554893	303	0
2	554893	304	0
2	554893	305	0
2	554893	306	0
2	554893	307	0
2	554893	308	0
2	554893	309	0
2	554893	310	0
2	554893	311	0
2	554893	312	0
2	554893	313	0.5
2	554893	314	0
2	554893	315	0
2	554893	316	0
2	554893	317	0
2	554893	318	0.33333333333333
2	554893	319	0
2	554893	320	0
2	554893	321	0
2	554893	322	0
2	554893	323	0
2	554893	324	0
2	554893	325	0
2	554893	326	0.33333333333333
2	554893	327	0
2	554893	328	0
2	554893	329	0.25
2	554893	330	0
2	554893	331	0
2	554893	332	0
2	554893	333	0
2	554893	334	0
2	554893	335	0
2	554893	336	0.16666666666667
2	554893	337	0
2	554893	338	0
2	554893	339	0
2	554893	340	0
2	554893	341	-nan
2	554893	342	0
2	554893	343	-nan
2	554893	344	0
2	554893	345	0
2	554893	346	0
2	554893	347	0
2	554893	348	0
2	554893	349	0
2	554893	350	0
2	554893	351	0
2	554893	352	0
2	554893	353	0
2	554893	354	-nan
2	554893	355	0.25
2	554893	356	0
2	554893	357	0
2	554893	358	0
2	554893	359	0
2	554893	360	-nan
2	554893	361	0
2	554893	362	0
2	554893	363	-nan
2	554893	364	-nan
2	554893	365	-nan
2	554893	366	0.25
2	554893	367	0
2	554893	368	0
2	554893	369	0
2	554893	370	0
2	554893	371	0
2	554893	372	-nan
2	554893	373	0
2	554893	374	0
2	554893	375	0
2	554893	376	0
2	554893	377	0
2	554893	378	0
2	554893	379	-nan
2	554893	380	0
2	554893	381	0
2	554893	382	0
2	554893	383	0.33333333333333
2	554893	384	0
2	554893	385	0
2	554893	386	0
2	554893	387	0
2	554893	388	-nan
2	554893	389	0
2	554893	390	0
2	554893	391	0
2	554893	392	0
2	554893	393	0
2	554893	394	-nan
2	554893	395	0
2	554893	396	0
2	554893	397	0
2	554893	398	0
2	554893	399	0
2	554893	400	0
2	554893	401	-nan
2	554893	402	0
2	554893	403	0
2	554893	404	0
2	554893	405	0
2	554893	406	0.33333333333333
2	554893	407	0
2	554893	408	0
2	554893	409	0
2	554893	410	0
2	554893	411	0
2	554893	412	-nan
2	554893	413	0
2	554893	414	0
2	554893	415	0
2	554893	416	0
2	554893	417	0
2	554893	418	0
2	554893	419	0
2	554893	420	0
2	554893	421	0
2	554893	422	0
2	554893	423	0
2	554893	424	0
2	554893	425	0
2	554893	426	-nan
2	554893	427	0
2	554893	428	0
2	554893	429	0
2	554893	430	0
2	554893	431	0
2	554893	432	-nan
2	554893	433	0.2
2	554893	434	0
2	554893	435	0
2	554893	436	0
2	554893	437	0
2	554893	438	0
2	554893	439	0
2	554893	440	0
2	554893	441	0
2	554893	442	0.33333333333333
2	554893	443	0
2	554893	444	0
2	554893	445	0.5
2	554893	446	0
2	554893	447	0
2	554893	448	0
2	554893	449	0
2	554893	450	0
2	554893	451	0
2	554893	452	0.33333333333333
2	554893	453	0
2	554893	454	0
2	554893	455	0
2	554893	456	0
2	554893	457	0
2	554893	458	-nan
2	554893	459	0
2	554893	460	-nan
2	554893	461	0
2	554893	462	0
2	554893	463	-nan
2	554893	464	-nan
2	554893	465	0
2	554893	466	-nan
2	554893	467	0
2	554893	468	0.25
2	554893	469	0
2	554893	470	0
2	554893	471	0
2	554893	472	0
2	554893	473	0
2	554893	474	0
2	554893	475	0
2	554893	476	0
2	554893	477	0
2	554893	478	0
2	554893	479	0
2	554893	480	0
2	554893	481	0
2	554893	482	0
2	554893	483	0
2	554893	484	0
2	554893	485	0
2	554893	486	0
2	554893	487	-nan
2	554893	488	0
2	554893	489	0
2	554893	490	0
2	554893	491	0
2	554893	492	0
2	554893	493	0
2	554893	494	0
2	554893	495	0
2	554893	496	0
2	554893	497	0
2	554893	498	0
2	554893	499	0
2	554893	500	-nan
2	554893	501	0
2	554893	502	-nan
2	554893	503	0
2	554893	504	0
2	554893	505	0
2	554893	506	0
2	554893	507	0
2	554893	508	0
2	554893	509	-nan
2	554893	510	0
2	554893	511	0
2	554893	512	0
2	554893	513	-nan
2	554893	514	0
2	554893	515	0
2	554893	516	-nan
2	554893	517	-nan
2	554893	518	0
2	554893	519	0
2	554893	520	0
2	554893	521	0
2	554893	522	-nan
2	554893	523	0
2	554893	524	-nan
2	554893	525	0
2	554893	526	0
2	554893	527	0
2	554893	528	0
2	554893	529	0
2	554893	530	-nan
2	554893	531	0
2	554893	532	0
2	554893	533	0.2
2	554893	534	0
2	554893	535	0