version 2
run General-15-20150311-18:59:41-28970
attr D fix0.1
attr F spr
attr R lru
attr a 0.8
attr configname General
attr datetime 20150311-18:59:41
attr experiment General
attr inifile omnetpp.ini
attr iterationvars "$net=abilene, $rep=0, $a=0.8, $F=spr, $ttl=1000, $D=fix0.1, $R=lru"
attr iterationvars2 "$net=abilene, $rep=0, $a=0.8, $F=spr, $ttl=1000, $D=fix0.1, $R=lru, $repetition=0"
attr measurement "$net=abilene, $rep=0, $a=0.8, $F=spr, $ttl=1000, $D=fix0.1, $R=lru"
attr net abilene
attr network networks.${net=abilene}_network
attr processid 28970
attr rep 0
attr repetition 0
attr replication #0
attr resultdir results
attr runnumber 15
attr seedset 0
attr ttl 1000

vector 0  abilene_network.node[0].content_store  hit_node[0]  ETV
0	599523	1	1
0	599523	2	1
0	599523	3	1
0	599523	4	1
0	599523	5	1
0	599523	6	0
0	599523	7	0.71428571428571
0	599523	8	0.66666666666667
0	599523	9	1
0	599523	10	0.9
0	599523	11	1
0	599523	12	0.11111111111111
0	599523	13	0.625
0	599523	14	1
0	599523	15	0.30769230769231
0	599523	16	0
0	599523	17	0
0	599523	18	0
0	599523	19	1
0	599523	20	0.83333333333333
0	599523	21	0
0	599523	22	0.8
0	599523	23	0
0	599523	24	1
0	599523	25	0
0	599523	26	0.4
0	599523	27	0.25
0	599523	28	0
0	599523	29	1
0	599523	30	1
0	599523	31	0.6
0	599523	32	0
0	599523	33	0
0	599523	34	0.25
0	599523	35	0
0	599523	36	0.85714285714286
0	599523	37	0
0	599523	38	0
0	599523	39	0
0	599523	40	0
0	599523	41	0
0	599523	42	-nan
0	599523	43	0
0	599523	44	0
0	599523	45	0.75
0	599523	46	0.25
0	599523	47	0.33333333333333
0	599523	48	0.75
0	599523	49	0.5
0	599523	50	0
0	599523	51	0
0	599523	52	0
0	599523	53	0
0	599523	54	0
0	599523	55	0
0	599523	56	0
0	599523	57	0
0	599523	58	0
0	599523	59	0
0	599523	60	0
0	599523	61	1
0	599523	62	0
0	599523	63	0
0	599523	64	0
0	599523	65	-nan
0	599523	66	0
0	599523	67	1
0	599523	68	0
0	599523	69	1
0	599523	70	0
0	599523	71	0
0	599523	72	0
0	599523	73	0
0	599523	74	0
0	599523	75	0.66666666666667
0	599523	76	0
0	599523	77	0
0	599523	78	0
0	599523	79	0
0	599523	80	0.5
0	599523	81	0
0	599523	82	1
0	599523	83	0
0	599523	84	-nan
0	599523	85	0
0	599523	86	-nan
0	599523	87	-nan
0	599523	88	0
0	599523	89	0.5
0	599523	90	0
0	599523	91	0
0	599523	92	0
0	599523	93	-nan
0	599523	94	0
0	599523	95	-nan
0	599523	96	0
0	599523	97	0
0	599523	98	1
0	599523	99	-nan
0	599523	100	-nan
0	599523	101	0.5
0	599523	102	-nan
0	599523	103	0
0	599523	104	-nan
0	599523	105	0
0	599523	106	0
0	599523	107	0
0	599523	108	0
0	599523	109	0
0	599523	110	0
0	599523	111	0
0	599523	112	0
0	599523	113	-nan
0	599523	114	0
0	599523	115	0
0	599523	116	0
0	599523	117	0
0	599523	118	0
0	599523	119	0
0	599523	120	0
0	599523	121	0
0	599523	122	-nan
0	599523	123	0
0	599523	124	0
0	599523	125	0
0	599523	126	0
0	599523	127	-nan
0	599523	128	0
0	599523	129	-nan
0	599523	130	0
0	599523	131	-nan
0	599523	132	-nan
0	599523	133	-nan
0	599523	134	0.66666666666667
0	599523	135	0
0	599523	136	0
0	599523	137	-nan
0	599523	138	0
0	599523	139	0
0	599523	140	-nan
0	599523	141	-nan
0	599523	142	0
0	599523	143	-nan
0	599523	144	0
0	599523	145	0
0	599523	146	0
0	599523	147	-nan
0	599523	148	0
0	599523	149	-nan
0	599523	150	0
0	599523	151	0
0	599523	152	0
0	599523	153	0.25
0	599523	154	0
0	599523	155	-nan
0	599523	156	0
0	599523	157	-nan
0	599523	158	0
0	599523	159	-nan
0	599523	160	0
0	599523	161	0
0	599523	162	0
0	599523	163	0
0	599523	164	0.75
0	599523	165	-nan
0	599523	166	-nan
0	599523	167	0
0	599523	168	0
0	599523	169	-nan
0	599523	170	0
0	599523	171	0
0	599523	172	0
0	599523	173	0.5
0	599523	174	-nan
0	599523	175	0
0	599523	176	0.5
0	599523	177	0
0	599523	178	0
0	599523	179	-nan
0	599523	180	0
0	599523	181	0
0	599523	182	0
0	599523	183	-nan
0	599523	184	0
0	599523	185	0
0	599523	186	0
0	599523	187	0
0	599523	188	0
0	599523	189	0
0	599523	190	0
0	599523	191	0
0	599523	192	-nan
0	599523	193	-nan
0	599523	194	0
0	599523	195	0
0	599523	196	-nan
0	599523	197	0
0	599523	198	0
0	599523	199	0
0	599523	200	-nan
0	599523	201	0
0	599523	202	0
0	599523	203	-nan
0	599523	204	0
0	599523	205	0
0	599523	206	-nan
0	599523	207	0
0	599523	208	-nan
0	599523	209	-nan
0	599523	210	0
0	599523	211	-nan
0	599523	212	-nan
0	599523	213	0
0	599523	214	-nan
0	599523	215	0
0	599523	216	0
0	599523	217	0.5
0	599523	218	0
0	599523	219	0
0	599523	220	-nan
0	599523	221	0
0	599523	222	-nan
0	599523	223	0
0	599523	224	0
0	599523	225	0
0	599523	226	-nan
0	599523	227	0
0	599523	228	0
0	599523	229	0
0	599523	230	0
0	599523	231	-nan
0	599523	232	0
0	599523	233	-nan
0	599523	234	-nan
0	599523	235	-nan
0	599523	236	0
0	599523	237	-nan
0	599523	238	0
0	599523	239	0
0	599523	240	-nan
0	599523	241	0
0	599523	242	-nan
0	599523	243	-nan
0	599523	244	-nan
0	599523	245	-nan
0	599523	246	-nan
0	599523	247	-nan
0	599523	248	0
0	599523	249	-nan
0	599523	250	0.33333333333333
0	599523	251	-nan
0	599523	252	1
0	599523	253	0
0	599523	254	-nan
0	599523	255	-nan
0	599523	256	0.33333333333333
0	599523	257	0
0	599523	258	-nan
0	599523	259	0
0	599523	260	0.5
0	599523	261	-nan
0	599523	262	-nan
0	599523	263	0
0	599523	264	0
0	599523	265	-nan
0	599523	266	-nan
0	599523	267	0
0	599523	268	-nan
0	599523	269	0
0	599523	270	-nan
0	599523	271	-nan
0	599523	272	0
0	599523	273	-nan
0	599523	274	-nan
0	599523	275	0
0	599523	276	-nan
0	599523	277	0
0	599523	278	-nan
0	599523	279	0
0	599523	280	0
0	599523	281	0
0	599523	282	-nan
0	599523	283	0
0	599523	284	0
0	599523	285	-nan
0	599523	286	0
0	599523	287	0
0	599523	288	-nan
0	599523	289	0
0	599523	290	0
0	599523	291	0
0	599523	292	0
0	599523	293	-nan
0	599523	294	-nan
0	599523	295	-nan
0	599523	296	0
0	599523	297	-nan
0	599523	298	0
0	599523	299	-nan
0	599523	300	-nan
0	599523	301	0
0	599523	302	-nan
0	599523	303	-nan
0	599523	304	0
0	599523	305	-nan
0	599523	306	0
0	599523	307	0.5
0	599523	308	-nan
0	599523	309	0
0	599523	310	0
0	599523	311	0
0	599523	312	0
0	599523	313	1
0	599523	314	-nan
0	599523	315	0
0	599523	316	-nan
0	599523	317	-nan
0	599523	318	0
0	599523	319	0
0	599523	320	-nan
0	599523	321	0
0	599523	322	0
0	599523	323	-nan
0	599523	324	-nan
0	599523	325	-nan
0	599523	326	0
0	599523	327	0.66666666666667
0	599523	328	0
0	599523	329	0
0	599523	330	-nan
0	599523	331	-nan
0	599523	332	0
0	599523	333	0
0	599523	334	0
0	599523	335	-nan
0	599523	336	0
0	599523	337	-nan
0	599523	338	-nan
0	599523	339	0
0	599523	340	0
0	599523	341	-nan
0	599523	342	-nan
0	599523	343	-nan
0	599523	344	-nan
0	599523	345	0
0	599523	346	0
0	599523	347	-nan
0	599523	348	0
0	599523	349	0
0	599523	350	0
0	599523	351	-nan
0	599523	352	0
0	599523	353	-nan
0	599523	354	0
0	599523	355	-nan
0	599523	356	0
0	599523	357	0
0	599523	358	0
0	599523	359	-nan
0	599523	360	-nan
0	599523	361	-nan
0	599523	362	0
0	599523	363	-nan
0	599523	364	-nan
0	599523	365	-nan
0	599523	366	0
0	599523	367	-nan
0	599523	368	-nan
0	599523	369	-nan
0	599523	370	0
0	599523	371	0
0	599523	372	-nan
0	599523	373	0
0	599523	374	0
0	599523	375	0
0	599523	376	-nan
0	599523	377	0
0	599523	378	-nan
0	599523	379	-nan
0	599523	380	-nan
0	599523	381	-nan
0	599523	382	-nan
0	599523	383	0
0	599523	384	-nan
0	599523	385	-nan
0	599523	386	0
0	599523	387	0
0	599523	388	-nan
0	599523	389	0
0	599523	390	0
0	599523	391	-nan
0	599523	392	-nan
0	599523	393	0
0	599523	394	-nan
0	599523	395	1
0	599523	396	-nan
0	599523	397	-nan
0	599523	398	-nan
0	599523	399	-nan
0	599523	400	0
0	599523	401	-nan
0	599523	402	-nan
0	599523	403	-nan
0	599523	404	-nan
0	599523	405	-nan
0	599523	406	0
0	599523	407	-nan
0	599523	408	0
0	599523	409	-nan
0	599523	410	0
0	599523	411	-nan
0	599523	412	-nan
0	599523	413	-nan
0	599523	414	0
0	599523	415	-nan
0	599523	416	-nan
0	599523	417	-nan
0	599523	418	-nan
0	599523	419	-nan
0	599523	420	-nan
0	599523	421	0
0	599523	422	0
0	599523	423	-nan
0	599523	424	0
0	599523	425	0
0	599523	426	-nan
0	599523	427	-nan
0	599523	428	0
0	599523	429	0
0	599523	430	-nan
0	599523	431	-nan
0	599523	432	-nan
0	599523	433	-nan
0	599523	434	0
0	599523	435	0
0	599523	436	0
0	599523	437	-nan
0	599523	438	0
0	599523	439	-nan
0	599523	440	0
0	599523	441	-nan
0	599523	442	0
0	599523	443	0
0	599523	444	0
0	599523	445	-nan
0	599523	446	0
0	599523	447	-nan
0	599523	448	-nan
0	599523	449	-nan
0	599523	450	-nan
0	599523	451	0
0	599523	452	0
0	599523	453	0
0	599523	454	-nan
0	599523	455	0
0	599523	456	0
0	599523	457	-nan
0	599523	458	-nan
0	599523	459	-nan
0	599523	460	-nan
0	599523	461	0
0	599523	462	-nan
0	599523	463	-nan
0	599523	464	-nan
0	599523	465	0
0	599523	466	-nan
0	599523	467	0
0	599523	468	0
0	599523	469	-nan
0	599523	470	0
0	599523	471	0
0	599523	472	-nan
0	599523	473	0
0	599523	474	-nan
0	599523	475	0
0	599523	476	-nan
0	599523	477	-nan
0	599523	478	-nan
0	599523	479	-nan
0	599523	480	-nan
0	599523	481	0
0	599523	482	0
0	599523	483	-nan
0	599523	484	-nan
0	599523	485	0
0	599523	486	0
0	599523	487	-nan
0	599523	488	-nan
0	599523	489	0
0	599523	490	-nan
0	599523	491	-nan
0	599523	492	0
0	599523	493	-nan
0	599523	494	-nan
0	599523	495	0
0	599523	496	0
0	599523	497	-nan
0	599523	498	0
0	599523	499	-nan
0	599523	500	-nan
0	599523	501	-nan
0	599523	502	-nan
0	599523	503	0
0	599523	504	-nan
0	599523	505	-nan
0	599523	506	-nan
0	599523	507	0
0	599523	508	-nan
0	599523	509	0
0	599523	510	-nan
0	599523	511	0
0	599523	512	0
0	599523	513	-nan
0	599523	514	0
0	599523	515	-nan
0	599523	516	-nan
0	599523	517	-nan
0	599523	518	0
0	599523	519	0
0	599523	520	-nan
0	599523	521	0
0	599523	522	-nan
0	599523	523	-nan
0	599523	524	0
0	599523	525	0
0	599523	526	0
0	599523	527	0
0	599523	528	0
0	599523	529	-nan
0	599523	530	-nan
0	599523	531	0
0	599523	532	-nan
0	599523	533	0
0	599523	534	-nan
0	599523	535	-nan
0	599523	536	0
0	599523	537	-nan
0	599523	538	-nan
0	599523	539	-nan
0	599523	540	0
0	599523	541	0
0	599523	542	-nan
0	599523	543	-nan
0	599523	544	-nan
0	599523	545	0
0	599523	546	-nan
0	599523	547	-nan
0	599523	548	0
0	599523	549	-nan
0	599523	550	-nan
0	599523	551	-nan
0	599523	552	-nan
0	599523	553	-nan
0	599523	554	0
0	599523	555	-nan
0	599523	556	-nan
0	599523	557	-nan
0	599523	558	-nan
0	599523	559	-nan
0	599523	560	-nan
0	599523	561	-nan
0	599523	562	-nan
0	599523	563	-nan
0	599523	564	0
0	599523	565	-nan
0	599523	566	0
0	599523	567	-nan
0	599523	568	0
0	599523	569	0
0	599523	570	0
0	599523	571	0
0	599523	572	-nan
0	599523	573	0
0	599523	574	-nan
0	599523	575	-nan
0	599523	576	-nan
0	599523	577	-nan
0	599523	578	-nan
0	599523	579	0
0	599523	580	-nan
0	599523	581	-nan
0	599523	582	-nan
0	599523	583	-nan
0	599523	584	-nan
0	599523	585	-nan
0	599523	586	0
0	599523	587	0
0	599523	588	-nan
0	599523	589	-nan
0	599523	590	0
0	599523	591	-nan
0	599523	592	-nan
0	599523	593	-nan
0	599523	594	-nan
0	599523	595	-nan
0	599523	596	-nan
0	599523	597	-nan
0	599523	598	0
0	599523	599	-nan
0	599523	600	0
0	599523	601	-nan
0	599523	602	-nan
0	599523	603	-nan
0	599523	604	-nan
vector 1  abilene_network.node[1].content_store  hit_node[1]  ETV
1	599523	1	1
1	599523	2	1
1	599523	3	0.95454545454545
1	599523	4	1
1	599523	5	1
1	599523	6	1
1	599523	7	1
1	599523	8	1
1	599523	9	0.88888888888889
1	599523	10	0.77777777777778
1	599523	11	1
1	599523	12	0.26315789473684
1	599523	13	0.63636363636364
1	599523	14	0
1	599523	15	1
1	599523	16	0.77777777777778
1	599523	17	0.84615384615385
1	599523	18	0
1	599523	19	0.33333333333333
1	599523	20	0.66666666666667
1	599523	21	1
1	599523	22	0.18181818181818
1	599523	23	0.81818181818182
1	599523	24	0
1	599523	25	0.36363636363636
1	599523	26	0.44444444444444
1	599523	27	0.3
1	599523	28	0.14285714285714
1	599523	29	0.375
1	599523	30	0.53846153846154
1	599523	31	0
1	599523	32	0.55555555555556
1	599523	33	0
1	599523	34	0.16666666666667
1	599523	35	0.125
1	599523	36	0.16666666666667
1	599523	37	0
1	599523	38	0.125
1	599523	39	0.18181818181818
1	599523	40	0
1	599523	41	0.33333333333333
1	599523	42	0
1	599523	43	0
1	599523	44	0
1	599523	45	0
1	599523	46	0
1	599523	47	0
1	599523	48	0
1	599523	49	0
1	599523	50	0.27272727272727
1	599523	51	0
1	599523	52	0
1	599523	53	0
1	599523	54	0
1	599523	55	0
1	599523	56	0.33333333333333
1	599523	57	0.125
1	599523	58	0
1	599523	59	0.2
1	599523	60	0
1	599523	61	0
1	599523	62	0
1	599523	63	0.27272727272727
1	599523	64	0
1	599523	65	0
1	599523	66	0
1	599523	67	0.2
1	599523	68	0
1	599523	69	0
1	599523	70	0.1
1	599523	71	0
1	599523	72	0
1	599523	73	0
1	599523	74	0
1	599523	75	0
1	599523	76	0
1	599523	77	0
1	599523	78	0
1	599523	79	0.54545454545455
1	599523	80	0
1	599523	81	0
1	599523	82	0
1	599523	83	0
1	599523	84	0
1	599523	85	0.11111111111111
1	599523	86	0
1	599523	87	0
1	599523	88	0
1	599523	89	0
1	599523	90	0
1	599523	91	0
1	599523	92	0
1	599523	93	0
1	599523	94	0
1	599523	95	0
1	599523	96	0.14285714285714
1	599523	97	0
1	599523	98	0
1	599523	99	0
1	599523	100	0
1	599523	101	0.2
1	599523	102	0
1	599523	103	0
1	599523	104	0
1	599523	105	0
1	599523	106	0
1	599523	107	0
1	599523	108	0.125
1	599523	109	0.25
1	599523	110	0.5
1	599523	111	0
1	599523	112	0
1	599523	113	0
1	599523	114	0
1	599523	115	0
1	599523	116	0.16666666666667
1	599523	117	0
1	599523	118	0.42857142857143
1	599523	119	0
1	599523	120	0
1	599523	121	0
1	599523	122	-nan
1	599523	123	0
1	599523	124	0.14285714285714
1	599523	125	0
1	599523	126	0
1	599523	127	0
1	599523	128	0.2
1	599523	129	0
1	599523	130	0
1	599523	131	0
1	599523	132	0.25
1	599523	133	0
1	599523	134	0
1	599523	135	0
1	599523	136	0
1	599523	137	0
1	599523	138	0
1	599523	139	0
1	599523	140	-nan
1	599523	141	0.33333333333333
1	599523	142	0
1	599523	143	0
1	599523	144	0
1	599523	145	0
1	599523	146	0
1	599523	147	0.5
1	599523	148	0
1	599523	149	0
1	599523	150	0
1	599523	151	0
1	599523	152	0.66666666666667
1	599523	153	0
1	599523	154	0
1	599523	155	0
1	599523	156	0
1	599523	157	-nan
1	599523	158	0
1	599523	159	0
1	599523	160	0
1	599523	161	0
1	599523	162	0
1	599523	163	0
1	599523	164	0
1	599523	165	0
1	599523	166	0
1	599523	167	0.2
1	599523	168	0
1	599523	169	0
1	599523	170	0
1	599523	171	0
1	599523	172	0
1	599523	173	0
1	599523	174	1
1	599523	175	0.33333333333333
1	599523	176	0
1	599523	177	0
1	599523	178	0
1	599523	179	0
1	599523	180	0
1	599523	181	0
1	599523	182	0.75
1	599523	183	0
1	599523	184	0
1	599523	185	0.33333333333333
1	599523	186	0
1	599523	187	0.14285714285714
1	599523	188	0
1	599523	189	0
1	599523	190	0
1	599523	191	0.5
1	599523	192	0
1	599523	193	0
1	599523	194	0.5
1	599523	195	0
1	599523	196	0
1	599523	197	0
1	599523	198	0
1	599523	199	0
1	599523	200	0
1	599523	201	0
1	599523	202	0
1	599523	203	-nan
1	599523	204	0
1	599523	205	0
1	599523	206	-nan
1	599523	207	0
1	599523	208	0
1	599523	209	0.66666666666667
1	599523	210	0.33333333333333
1	599523	211	0
1	599523	212	0
1	599523	213	0
1	599523	214	0
1	599523	215	0
1	599523	216	0
1	599523	217	0
1	599523	218	0
1	599523	219	0
1	599523	220	0
1	599523	221	0
1	599523	222	0
1	599523	223	0
1	599523	224	0
1	599523	225	0
1	599523	226	0
1	599523	227	0
1	599523	228	0.5
1	599523	229	0
1	599523	230	0
1	599523	231	0
1	599523	232	0
1	599523	233	0
1	599523	234	0
1	599523	235	0
1	599523	236	0
1	599523	237	0
1	599523	238	0.2
1	599523	239	0
1	599523	240	0
1	599523	241	0
1	599523	242	0
1	599523	243	0
1	599523	244	0
1	599523	245	0
1	599523	246	0
1	599523	247	-nan
1	599523	248	0
1	599523	249	0
1	599523	250	0.28571428571429
1	599523	251	-nan
1	599523	252	0
1	599523	253	0
1	599523	254	0
1	599523	255	0
1	599523	256	0
1	599523	257	0
1	599523	258	0
1	599523	259	0
1	599523	260	0
1	599523	261	-nan
1	599523	262	0
1	599523	263	0
1	599523	264	0
1	599523	265	0
1	599523	266	-nan
1	599523	267	0
1	599523	268	0
1	599523	269	0
1	599523	270	0
1	599523	271	0
1	599523	272	0
1	599523	273	0
1	599523	274	0
1	599523	275	0
1	599523	276	0
1	599523	277	0
1	599523	278	0
1	599523	279	0
1	599523	280	0
1	599523	281	0
1	599523	282	0
1	599523	283	0
1	599523	284	0
1	599523	285	0
1	599523	286	0
1	599523	287	0
1	599523	288	0
1	599523	289	0
1	599523	290	0
1	599523	291	0
1	599523	292	0
1	599523	293	0
1	599523	294	0
1	599523	295	-nan
1	599523	296	0
1	599523	297	0
1	599523	298	0
1	599523	299	0
1	599523	300	0
1	599523	301	0
1	599523	302	0
1	599523	303	0
1	599523	304	0
1	599523	305	0
1	599523	306	0
1	599523	307	0
1	599523	308	0
1	599523	309	0
1	599523	310	0
1	599523	311	0
1	599523	312	0
1	599523	313	0
1	599523	314	0
1	599523	315	0
1	599523	316	-nan
1	599523	317	0
1	599523	318	0
1	599523	319	0
1	599523	320	0
1	599523	321	0
1	599523	322	0
1	599523	323	0
1	599523	324	0
1	599523	325	0
1	599523	326	0.33333333333333
1	599523	327	0
1	599523	328	0
1	599523	329	0
1	599523	330	0
1	599523	331	0
1	599523	332	0.25
1	599523	333	0
1	599523	334	0
1	599523	335	0
1	599523	336	0
1	599523	337	0
1	599523	338	-nan
1	599523	339	0
1	599523	340	0
1	599523	341	-nan
1	599523	342	0
1	599523	343	-nan
1	599523	344	0
1	599523	345	0
1	599523	346	0
1	599523	347	0
1	599523	348	0
1	599523	349	0
1	599523	350	0
1	599523	351	0
1	599523	352	0
1	599523	353	0
1	599523	354	0
1	599523	355	0
1	599523	356	0
1	599523	357	0
1	599523	358	0
1	599523	359	0
1	599523	360	-nan
1	599523	361	0
1	599523	362	0
1	599523	363	-nan
1	599523	364	-nan
1	599523	365	0
1	599523	366	0
1	599523	367	0
1	599523	368	0
1	599523	369	-nan
1	599523	370	0
1	599523	371	0
1	599523	372	-nan
1	599523	373	0
1	599523	374	0.33333333333333
1	599523	375	0
1	599523	376	0
1	599523	377	0
1	599523	378	0
1	599523	379	-nan
1	599523	380	0
1	599523	381	-nan
1	599523	382	0
1	599523	383	0
1	599523	384	0
1	599523	385	-nan
1	599523	386	0
1	599523	387	0
1	599523	388	-nan
1	599523	389	0
1	599523	390	0
1	599523	391	0
1	599523	392	0
1	599523	393	0
1	599523	394	-nan
1	599523	395	0
1	599523	396	0
1	599523	397	0
1	599523	398	0
1	599523	399	0
1	599523	400	0
1	599523	401	-nan
1	599523	402	0
1	599523	403	0
1	599523	404	0
1	599523	405	-nan
1	599523	406	0
1	599523	407	0
1	599523	408	0
1	599523	409	0
1	599523	410	0
1	599523	411	-nan
1	599523	412	-nan
1	599523	413	0
1	599523	414	0
1	599523	415	-nan
1	599523	416	0
1	599523	417	0
1	599523	418	0
1	599523	419	-nan
1	599523	420	0
1	599523	421	0
1	599523	422	0
1	599523	423	0
1	599523	424	0
1	599523	425	0
1	599523	426	-nan
1	599523	427	-nan
1	599523	428	0
1	599523	429	0
1	599523	430	0
1	599523	431	0
1	599523	432	0
1	599523	433	0
1	599523	434	0.25
1	599523	435	0
1	599523	436	0
1	599523	437	0
1	599523	438	0
1	599523	439	-nan
1	599523	440	0
1	599523	441	0
1	599523	442	0
1	599523	443	0
1	599523	444	0
1	599523	445	0
1	599523	446	0
1	599523	447	0
1	599523	448	0
1	599523	449	0
1	599523	450	0
1	599523	451	0
1	599523	452	0.33333333333333
1	599523	453	0
1	599523	454	0
1	599523	455	0
1	599523	456	0
1	599523	457	-nan
1	599523	458	-nan
1	599523	459	0
1	599523	460	0
1	599523	461	0
1	599523	462	0
1	599523	463	-nan
1	599523	464	-nan
1	599523	465	0
1	599523	466	-nan
1	599523	467	0
1	599523	468	0
1	599523	469	0
1	599523	470	0
1	599523	471	0
1	599523	472	0
1	599523	473	0
1	599523	474	0
1	599523	475	0
1	599523	476	0
1	599523	477	0
1	599523	478	0
1	599523	479	0
1	599523	480	0
1	599523	481	0
1	599523	482	0
1	599523	483	-nan
1	599523	484	0
1	599523	485	0
1	599523	486	0
1	599523	487	-nan
1	599523	488	0
1	599523	489	0
1	599523	490	0
1	599523	491	-nan
1	599523	492	0
1	599523	493	0
1	599523	494	0
1	599523	495	0
1	599523	496	0
1	599523	497	0
1	599523	498	0
1	599523	499	0
1	599523	500	-nan
1	599523	501	0
1	599523	502	-nan
1	599523	503	0
1	599523	504	-nan
1	599523	505	0
1	599523	506	-nan
1	599523	507	0
1	599523	508	0
1	599523	509	0
1	599523	510	0
1	599523	511	0
1	599523	512	0
1	599523	513	-nan
1	599523	514	0
1	599523	515	0
1	599523	516	-nan
1	599523	517	-nan
1	599523	518	0
1	599523	519	0
1	599523	520	-nan
1	599523	521	0
1	599523	522	-nan
1	599523	523	-nan
1	599523	524	0
1	599523	525	0
1	599523	526	0
1	599523	527	0
1	599523	528	0
1	599523	529	0
1	599523	530	-nan
1	599523	531	0
1	599523	532	-nan
1	599523	533	0
1	599523	534	-nan
1	599523	535	0
1	599523	536	0
1	599523	537	-nan
1	599523	538	0
1	599523	539	-nan
1	599523	540	0
1	599523	541	0
1	599523	542	0
1	599523	543	0
1	599523	544	0
1	599523	545	0
1	599523	546	-nan
1	599523	547	-nan
1	599523	548	0
1	599523	549	0
1	599523	550	-nan
1	599523	551	0
1	599523	552	0
1	599523	553	-nan
1	599523	554	0
1	599523	555	-nan
1	599523	556	0
1	599523	557	0
1	599523	558	-nan
1	599523	559	0
1	599523	560	0
1	599523	561	-nan
1	599523	562	-nan
1	599523	563	-nan
1	599523	564	0
1	599523	565	-nan
1	599523	566	0
1	599523	567	0
1	599523	568	0
1	599523	569	0
1	599523	570	0
1	599523	571	0
1	599523	572	0.25
1	599523	573	0.5
1	599523	574	0
1	599523	575	0
1	599523	576	0
1	599523	577	0
1	599523	578	0
1	599523	579	0
1	599523	580	-nan
1	599523	581	0
1	599523	582	0
1	599523	583	-nan
1	599523	584	0
1	599523	585	0
1	599523	586	0
1	599523	587	0
1	599523	588	0
1	599523	589	-nan
1	599523	590	0
1	599523	591	0
1	599523	592	0
1	599523	593	0
1	599523	594	-nan
1	599523	595	0
1	599523	596	-nan
1	599523	597	0
1	599523	598	0
1	599523	599	0
1	599523	600	0
1	599523	601	0
1	599523	602	0
1	599523	603	0
1	599523	604	0
vector 2  abilene_network.node[2].content_store  hit_node[2]  ETV
2	599523	1	1
2	599523	2	1
2	599523	3	1
2	599523	4	1
2	599523	5	0.53333333333333
2	599523	6	0.76923076923077
2	599523	7	0.69230769230769
2	599523	8	0.3
2	599523	9	0
2	599523	10	0.2
2	599523	11	0
2	599523	12	0.2
2	599523	13	0.076923076923077
2	599523	14	1
2	599523	15	0.14285714285714
2	599523	16	0.8
2	599523	17	0.42857142857143
2	599523	18	0.33333333333333
2	599523	19	0.36842105263158
2	599523	20	0
2	599523	21	0
2	599523	22	0.93333333333333
2	599523	23	0.5
2	599523	24	0.23076923076923
2	599523	25	0.15384615384615
2	599523	26	0.85714285714286
2	599523	27	0.82352941176471
2	599523	28	0
2	599523	29	0.25
2	599523	30	0
2	599523	31	0.35714285714286
2	599523	32	0
2	599523	33	0
2	599523	34	0
2	599523	35	0.45454545454545
2	599523	36	0
2	599523	37	0.76190476190476
2	599523	38	0
2	599523	39	0
2	599523	40	0.54545454545455
2	599523	41	0
2	599523	42	0
2	599523	43	0.46153846153846
2	599523	44	0.3
2	599523	45	0
2	599523	46	0.083333333333333
2	599523	47	0
2	599523	48	0.33333333333333
2	599523	49	0
2	599523	50	0.16666666666667
2	599523	51	0
2	599523	52	0.4
2	599523	53	0
2	599523	54	0
2	599523	55	0.36363636363636
2	599523	56	0
2	599523	57	0
2	599523	58	0
2	599523	59	0.25
2	599523	60	0
2	599523	61	0
2	599523	62	0.6
2	599523	63	0
2	599523	64	0
2	599523	65	0
2	599523	66	0
2	599523	67	0
2	599523	68	0.3
2	599523	69	0.11111111111111
2	599523	70	0.8
2	599523	71	0
2	599523	72	0
2	599523	73	0
2	599523	74	0
2	599523	75	0
2	599523	76	0
2	599523	77	0.27272727272727
2	599523	78	0
2	599523	79	0
2	599523	80	0
2	599523	81	0
2	599523	82	0
2	599523	83	0.2
2	599523	84	0.14285714285714
2	599523	85	0
2	599523	86	0
2	599523	87	0
2	599523	88	0.2
2	599523	89	0.14285714285714
2	599523	90	0
2	599523	91	0.625
2	599523	92	0
2	599523	93	0
2	599523	94	0
2	599523	95	0
2	599523	96	0
2	599523	97	0
2	599523	98	0
2	599523	99	0
2	599523	100	0
2	599523	101	0
2	599523	102	0
2	599523	103	0.25
2	599523	104	0
2	599523	105	0
2	599523	106	0
2	599523	107	0
2	599523	108	0.125
2	599523	109	0
2	599523	110	0
2	599523	111	0
2	599523	112	0.42857142857143
2	599523	113	0
2	599523	114	0
2	599523	115	0
2	599523	116	0
2	599523	117	0
2	599523	118	0.6
2	599523	119	0.16666666666667
2	599523	120	0.33333333333333
2	599523	121	0
2	599523	122	0
2	599523	123	0.25
2	599523	124	0
2	599523	125	0
2	599523	126	0
2	599523	127	0
2	599523	128	0.16666666666667
2	599523	129	0
2	599523	130	0
2	599523	131	0
2	599523	132	0
2	599523	133	0
2	599523	134	0
2	599523	135	0.57142857142857
2	599523	136	0
2	599523	137	0
2	599523	138	0.2
2	599523	139	0
2	599523	140	-nan
2	599523	141	0
2	599523	142	0.5
2	599523	143	0
2	599523	144	0
2	599523	145	0.2
2	599523	146	0
2	599523	147	0
2	599523	148	0.16666666666667
2	599523	149	0
2	599523	150	0
2	599523	151	0
2	599523	152	0
2	599523	153	0.16666666666667
2	599523	154	0
2	599523	155	0
2	599523	156	0
2	599523	157	-nan
2	599523	158	0
2	599523	159	0
2	599523	160	0.2
2	599523	161	0
2	599523	162	0.25
2	599523	163	0
2	599523	164	0
2	599523	165	0
2	599523	166	0
2	599523	167	0
2	599523	168	0
2	599523	169	0.2
2	599523	170	0.14285714285714
2	599523	171	0.14285714285714
2	599523	172	0
2	599523	173	0
2	599523	174	-nan
2	599523	175	0
2	599523	176	0
2	599523	177	0
2	599523	178	0
2	599523	179	0.5
2	599523	180	0
2	599523	181	0
2	599523	182	0
2	599523	183	0
2	599523	184	0
2	599523	185	0
2	599523	186	0.14285714285714
2	599523	187	0
2	599523	188	0
2	599523	189	0
2	599523	190	0
2	599523	191	0
2	599523	192	0
2	599523	193	0
2	599523	194	0
2	599523	195	0
2	599523	196	0
2	599523	197	0
2	599523	198	0
2	599523	199	0
2	599523	200	0
2	599523	201	0.28571428571429
2	599523	202	0
2	599523	203	-nan
2	599523	204	0.4
2	599523	205	0
2	599523	206	0.5
2	599523	207	0
2	599523	208	0
2	599523	209	0
2	599523	210	0
2	599523	211	0
2	599523	212	0
2	599523	213	0
2	599523	214	0.2
2	599523	215	0
2	599523	216	0
2	599523	217	0
2	599523	218	0
2	599523	219	0
2	599523	220	0
2	599523	221	0
2	599523	222	0
2	599523	223	0
2	599523	224	0
2	599523	225	0
2	599523	226	0
2	599523	227	0
2	599523	228	0.5
2	599523	229	0
2	599523	230	0
2	599523	231	0
2	599523	232	0
2	599523	233	0.2
2	599523	234	0
2	599523	235	0
2	599523	236	0
2	599523	237	0
2	599523	238	0.25
2	599523	239	0
2	599523	240	0
2	599523	241	0
2	599523	242	0
2	599523	243	0
2	599523	244	0
2	599523	245	0
2	599523	246	0
2	599523	247	-nan
2	599523	248	0
2	599523	249	0.25
2	599523	250	0
2	599523	251	-nan
2	599523	252	0
2	599523	253	0
2	599523	254	0
2	599523	255	0
2	599523	256	0
2	599523	257	0.2
2	599523	258	0
2	599523	259	0.5
2	599523	260	0
2	599523	261	-nan
2	599523	262	0
2	599523	263	0
2	599523	264	0
2	599523	265	0
2	599523	266	-nan
2	599523	267	0
2	599523	268	0
2	599523	269	0
2	599523	270	0
2	599523	271	0
2	599523	272	0
2	599523	273	0
2	599523	274	0
2	599523	275	0
2	599523	276	0
2	599523	277	0
2	599523	278	0.25
2	599523	279	0
2	599523	280	0
2	599523	281	0
2	599523	282	0
2	599523	283	0
2	599523	284	0
2	599523	285	0
2	599523	286	0
2	599523	287	0
2	599523	288	0
2	599523	289	0
2	599523	290	0
2	599523	291	0
2	599523	292	0
2	599523	293	0
2	599523	294	0
2	599523	295	0
2	599523	296	0
2	599523	297	0
2	599523	298	0
2	599523	299	0
2	599523	300	0
2	599523	301	0
2	599523	302	0
2	599523	303	0
2	599523	304	0
2	599523	305	0
2	599523	306	0
2	599523	307	0
2	599523	308	0
2	599523	309	0
2	599523	310	0.6
2	599523	311	0.4
2	599523	312	0
2	599523	313	0
2	599523	314	0
2	599523	315	0
2	599523	316	-nan
2	599523	317	0
2	599523	318	0
2	599523	319	0.2
2	599523	320	0
2	599523	321	0
2	599523	322	0
2	599523	323	0
2	599523	324	0
2	599523	325	0
2	599523	326	0
2	599523	327	0
2	599523	328	0
2	599523	329	0
2	599523	330	0
2	599523	331	0
2	599523	332	0
2	599523	333	0
2	599523	334	0
2	599523	335	0
2	599523	336	0.2
2	599523	337	0
2	599523	338	0
2	599523	339	0
2	599523	340	0
2	599523	341	-nan
2	599523	342	0
2	599523	343	-nan
2	599523	344	0
2	599523	345	0
2	599523	346	0
2	599523	347	0
2	599523	348	0
2	599523	349	0
2	599523	350	0
2	599523	351	0
2	599523	352	0
2	599523	353	0
2	599523	354	0
2	599523	355	0.5
2	599523	356	0
2	599523	357	0
2	599523	358	0
2	599523	359	0
2	599523	360	-nan
2	599523	361	0
2	599523	362	0
2	599523	363	-nan
2	599523	364	-nan
2	599523	365	0
2	599523	366	0
2	599523	367	0
2	599523	368	0
2	599523	369	0
2	599523	370	0
2	599523	371	0
2	599523	372	-nan
2	599523	373	0
2	599523	374	0
2	599523	375	0
2	599523	376	0
2	599523	377	0.33333333333333
2	599523	378	0
2	599523	379	-nan
2	599523	380	0
2	599523	381	-nan
2	599523	382	0
2	599523	383	0
2	599523	384	0
2	599523	385	-nan
2	599523	386	0
2	599523	387	0
2	599523	388	-nan
2	599523	389	0
2	599523	390	0
2	599523	391	0
2	599523	392	0
2	599523	393	0
2	599523	394	-nan
2	599523	395	0
2	599523	396	0
2	599523	397	0
2	599523	398	0
2	599523	399	0
2	599523	400	0
2	599523	401	-nan
2	599523	402	0
2	599523	403	0
2	599523	404	0
2	599523	405	-nan
2	599523	406	0
2	599523	407	0
2	599523	408	0.33333333333333
2	599523	409	0
2	599523	410	0.4
2	599523	411	0
2	599523	412	-nan
2	599523	413	0
2	599523	414	0
2	599523	415	-nan
2	599523	416	0.5
2	599523	417	0
2	599523	418	0
2	599523	419	0
2	599523	420	0
2	599523	421	0
2	599523	422	0
2	599523	423	0
2	599523	424	0
2	599523	425	0
2	599523	426	-nan
2	599523	427	0
2	599523	428	0
2	599523	429	0
2	599523	430	0
2	599523	431	0
2	599523	432	0
2	599523	433	0
2	599523	434	0
2	599523	435	0
2	599523	436	0
2	599523	437	0
2	599523	438	0
2	599523	439	0
2	599523	440	0
2	599523	441	0
2	599523	442	0
2	599523	443	0
2	599523	444	0
2	599523	445	0
2	599523	446	0
2	599523	447	0
2	599523	448	0
2	599523	449	0
2	599523	450	0
2	599523	451	0
2	599523	452	0
2	599523	453	0
2	599523	454	0
2	599523	455	0
2	599523	456	0.16666666666667
2	599523	457	0
2	599523	458	-nan
2	599523	459	0
2	599523	460	0
2	599523	461	0
2	599523	462	0.5
2	599523	463	-nan
2	599523	464	-nan
2	599523	465	0
2	599523	466	-nan
2	599523	467	0
2	599523	468	0
2	599523	469	0
2	599523	470	0.5
2	599523	471	0
2	599523	472	0
2	599523	473	0
2	599523	474	0
2	599523	475	0
2	599523	476	0
2	599523	477	0
2	599523	478	0
2	599523	479	0
2	599523	480	0
2	599523	481	0
2	599523	482	0
2	599523	483	0
2	599523	484	0
2	599523	485	0
2	599523	486	0
2	599523	487	-nan
2	599523	488	0
2	599523	489	0.33333333333333
2	599523	490	0
2	599523	491	0
2	599523	492	0
2	599523	493	0
2	599523	494	0
2	599523	495	0
2	599523	496	0
2	599523	497	0
2	599523	498	0
2	599523	499	0
2	599523	500	-nan
2	599523	501	0
2	599523	502	-nan
2	599523	503	0
2	599523	504	-nan
2	599523	505	0
2	599523	506	-nan
2	599523	507	0
2	599523	508	0
2	599523	509	0
2	599523	510	0
2	599523	511	0
2	599523	512	0
2	599523	513	-nan
2	599523	514	0
2	599523	515	0
2	599523	516	-nan
2	599523	517	0
2	599523	518	0
2	599523	519	0
2	599523	520	0
2	599523	521	0.5
2	599523	522	-nan
2	599523	523	0
2	599523	524	0
2	599523	525	0
2	599523	526	0
2	599523	527	0
2	599523	528	0
2	599523	529	0
2	599523	530	-nan
2	599523	531	0
2	599523	532	0
2	599523	533	0
2	599523	534	0
2	599523	535	0
2	599523	536	0
2	599523	537	-nan
2	599523	538	0
2	599523	539	-nan
2	599523	540	0
2	599523	541	0
2	599523	542	0
2	599523	543	0
2	599523	544	0
2	599523	545	0
2	599523	546	-nan
2	599523	547	0
2	599523	548	0
2	599523	549	0
2	599523	550	-nan
2	599523	551	0
2	599523	552	0
2	599523	553	-nan
2	599523	554	0
2	599523	555	-nan
2	599523	556	0
2	599523	557	0
2	599523	558	-nan
2	599523	559	0
2	599523	560	0
2	599523	561	0
2	599523	562	-nan
2	599523	563	-nan
2	599523	564	0
2	599523	565	-nan
2	599523	566	0
2	599523	567	0
2	599523	568	0
2	599523	569	0
2	599523	570	0