file 463842736 1397826420                                       
version 2
run General-10-20140418-15:05:24-1417
attr D costprob0.1
attr F nrr
attr R lru
attr a 0.8
attr configname General
attr csize 10
attr ctlg 10^8
attr datetime 20140418-15:05:24
attr experiment General
attr inifile omnetpp.ini
attr iterationvars "$net=simple_scenario, $rep=1, $priceratiovalue=3, $a=0.8, $ctlg=10^8, $F=nrr, $ttl=1000, $D=costprob0.1, $R=lru, $csize=10"
attr iterationvars2 "$net=simple_scenario, $rep=1, $priceratiovalue=3, $a=0.8, $ctlg=10^8, $F=nrr, $ttl=1000, $D=costprob0.1, $R=lru, $csize=10, $repetition=0"
attr measurement "$net=simple_scenario, $rep=1, $priceratiovalue=3, $a=0.8, $ctlg=10^8, $F=nrr, $ttl=1000, $D=costprob0.1, $R=lru, $csize=10"
attr net simple_scenario
attr network networks.${net=simple_scenario}_network
attr priceratiovalue 3
attr processid 1417
attr rep 1
attr repetition 0
attr replication #0
attr resultdir results
attr runnumber 10
attr seedset 1
attr ttl 1000

vector 0  simple_scenario_network.node[0].content_store  hit_node[0]  ETV
0	995 15138007 1323252 1323252 1 699051 699051 0 0.16666666666667 -nan -nan
0	15139002 15747246 1323252 1323252 699052 1398102 699051 0 0 -nan -nan
0	30886248 16058736 1323252 1323252 1398103 2097153 699051 0 0 -nan -nan
0	46944984 16062972 1323252 1323252 2097154 2796204 699051 0 0 -nan -nan
0	63007956 15927198 1323252 1323252 2796205 3489213 693009 0 0 -nan -nan
vector 1  simple_scenario_network.node[1].content_store  hit_node[1]  ETV
1	78935228 15202853 1323252 1323252 1 699051 699051 0 0.25 -nan -nan
1	94138081 15762063 1323252 1323252 699052 1398102 699051 0 0 -nan -nan
1	109900144 16068360 1323252 1323252 1398103 2097153 699051 0 0 -nan -nan
1	125968504 16070484 1323252 1323252 2097154 2796204 699051 0 0 -nan -nan
1	142038988 15933468 1323252 1323252 2796205 3489213 693009 0 0 -nan -nan
vector 2  simple_scenario_network.node[2].content_store  hit_node[2]  ETV
2	157972530 15203366 1323252 1323252 1 699051 699051 0 0.33333333333333 -nan -nan
2	173175896 15762408 1323252 1323252 699052 1398102 699051 0 0 -nan -nan
2	188938304 16068549 1323252 1323252 1398103 2097153 699051 0 0 -nan -nan
2	205006853 16070661 1323252 1323252 2097154 2796204 699051 0 0 -nan -nan
2	221077514 15932937 1323252 1323252 2796205 3489213 693009 0 0 -nan -nan
vector 3  simple_scenario_network.node[3].content_store  hit_node[3]  ETV
3	237010525 15202656 1323252 1323252 1 699051 699051 0 0 -nan -nan
3	252213181 15762063 1323252 1323252 699052 1398102 699051 0 0 -nan -nan
3	267975244 16068360 1323252 1323252 1398103 2097153 699051 0 0 -nan -nan
3	284043604 16070484 1323252 1323252 2097154 2796204 699051 0 0 -nan -nan
3	300114088 15933468 1323252 1323252 2796205 3489213 693009 0 0 -nan -nan
vector 4  simple_scenario_network.node[4].content_store  hit_node[4]  ETV
4	316047630 15203070 1323252 1323252 1 699051 699051 0 0 -nan -nan
4	331250700 15762408 1323252 1323252 699052 1398102 699051 0 0 -nan -nan
4	347013108 16068549 1323252 1323252 1398103 2097153 699051 0 0 -nan -nan
4	363081657 16070661 1323252 1323252 2097154 2796204 699051 0 0 -nan -nan
4	379152318 15932937 1323252 1323252 2796205 3489213 693009 0 0 -nan -nan
vector 5  simple_scenario_network.client[0]  hdistance[0]  ETV
5	395085318 13253203 1323252 1323252 1 699051 699051 0 3 130287.45432487 390801.13818751
5	408338521 13681178 1323252 1323252 699052 1398102 699051 0 3 29978.780846166 89935.68568146
5	422019699 13981299 1323252 1323252 1398103 2097153 699051 0 3 19436.945585568 58310.67366315
5	436000998 13981310 1323252 1323252 2097154 2796204 699051 0 3 15200.942866801 45602.657358121
5	449982308 13860428 1323252 1323252 2796205 3489213 693009 0 3 12008.951762916 36026.710708615
