version 2
run General-17-20150311-18:59:41-28972
attr D lcd
attr F spr
attr R lru
attr a 0.9
attr configname General
attr datetime 20150311-18:59:41
attr experiment General
attr inifile omnetpp.ini
attr iterationvars "$net=abilene, $rep=0, $a=0.9, $F=spr, $ttl=1000, $D=lcd, $R=lru"
attr iterationvars2 "$net=abilene, $rep=0, $a=0.9, $F=spr, $ttl=1000, $D=lcd, $R=lru, $repetition=0"
attr measurement "$net=abilene, $rep=0, $a=0.9, $F=spr, $ttl=1000, $D=lcd, $R=lru"
attr net abilene
attr network networks.${net=abilene}_network
attr processid 28972
attr rep 0
attr repetition 0
attr replication #0
attr resultdir results
attr runnumber 17
attr seedset 0
attr ttl 1000

vector 0  abilene_network.node[0].content_store  hit_node[0]  ETV
0	942752	1	1
0	942752	2	1
0	942752	3	1
0	942752	4	1
0	942752	5	1
0	942752	6	1
0	942752	7	1
0	942752	8	1
0	942752	9	1
0	942752	10	1
0	942752	11	1
0	942752	12	1
0	942752	13	1
0	942752	14	1
0	942752	15	1
0	942752	16	1
0	942752	17	1
0	942752	18	1
0	942752	19	1
0	942752	20	1
0	942752	21	1
0	942752	22	0.66666666666667
0	942752	23	1
0	942752	24	1
0	942752	25	1
0	942752	26	1
0	942752	27	0.75
0	942752	28	1
0	942752	29	1
0	942752	30	1
0	942752	31	1
0	942752	32	0.85714285714286
0	942752	33	0.66666666666667
0	942752	34	1
0	942752	35	1
0	942752	36	0.5
0	942752	37	1
0	942752	38	1
0	942752	39	0.5
0	942752	40	1
0	942752	41	1
0	942752	42	1
0	942752	43	1
0	942752	44	0.66666666666667
0	942752	45	0.5
0	942752	46	0.5
0	942752	47	1
0	942752	48	1
0	942752	49	1
0	942752	50	0.5
0	942752	51	0.8
0	942752	52	0.5
0	942752	53	0.5
0	942752	54	1
0	942752	55	1
0	942752	56	1
0	942752	57	0
0	942752	58	1
0	942752	59	1
0	942752	60	0
0	942752	61	0.66666666666667
0	942752	62	1
0	942752	63	0.66666666666667
0	942752	64	0
0	942752	65	0.2
0	942752	66	1
0	942752	67	0.85714285714286
0	942752	68	0.5
0	942752	69	1
0	942752	70	1
0	942752	71	0
0	942752	72	0
0	942752	73	0
0	942752	74	0
0	942752	75	1
0	942752	76	0
0	942752	77	0
0	942752	78	0.5
0	942752	79	-nan
0	942752	80	0
0	942752	81	-nan
0	942752	82	1
0	942752	83	0
0	942752	84	1
0	942752	85	-nan
0	942752	86	0
0	942752	87	0
0	942752	88	0
0	942752	89	1
0	942752	90	0.33333333333333
0	942752	91	-nan
0	942752	92	0.66666666666667
0	942752	93	0
0	942752	94	0
0	942752	95	0
0	942752	96	0.16666666666667
0	942752	97	0
0	942752	98	0.5
0	942752	99	1
0	942752	100	-nan
0	942752	101	0
0	942752	102	0
0	942752	103	0
0	942752	104	0.5
0	942752	105	0
0	942752	106	0
0	942752	107	-nan
0	942752	108	1
0	942752	109	1
0	942752	110	-nan
0	942752	111	0
0	942752	112	0.66666666666667
0	942752	113	0.8
0	942752	114	0
0	942752	115	1
0	942752	116	0.8
0	942752	117	0
0	942752	118	1
0	942752	119	0
0	942752	120	-nan
0	942752	121	-nan
0	942752	122	0
0	942752	123	0
0	942752	124	0
0	942752	125	-nan
0	942752	126	0
0	942752	127	0
0	942752	128	0
0	942752	129	0
0	942752	130	0
0	942752	131	0
0	942752	132	0
0	942752	133	-nan
0	942752	134	0
0	942752	135	0
0	942752	136	0
0	942752	137	-nan
0	942752	138	0.5
0	942752	139	0
0	942752	140	0
0	942752	141	-nan
0	942752	142	0
0	942752	143	0
0	942752	144	0
0	942752	145	0
0	942752	146	0.33333333333333
0	942752	147	-nan
0	942752	148	0
0	942752	149	-nan
0	942752	150	0
0	942752	151	1
0	942752	152	0
0	942752	153	-nan
0	942752	154	0
0	942752	155	1
0	942752	156	0
0	942752	157	-nan
0	942752	158	0
0	942752	159	0
0	942752	160	-nan
0	942752	161	0
0	942752	162	0
0	942752	163	-nan
0	942752	164	0
0	942752	165	-nan
0	942752	166	0.66666666666667
0	942752	167	0
0	942752	168	-nan
0	942752	169	0.66666666666667
0	942752	170	0
0	942752	171	-nan
0	942752	172	1
0	942752	173	-nan
0	942752	174	-nan
0	942752	175	0
0	942752	176	-nan
0	942752	177	-nan
0	942752	178	0.66666666666667
0	942752	179	-nan
0	942752	180	-nan
0	942752	181	-nan
0	942752	182	-nan
0	942752	183	-nan
0	942752	184	-nan
0	942752	185	0
0	942752	186	0
0	942752	187	1
0	942752	188	0
0	942752	189	0
0	942752	190	-nan
0	942752	191	0
0	942752	192	-nan
0	942752	193	0
0	942752	194	-nan
0	942752	195	-nan
0	942752	196	0
0	942752	197	-nan
0	942752	198	0
0	942752	199	0
0	942752	200	-nan
0	942752	201	0
0	942752	202	-nan
0	942752	203	0
0	942752	204	0
0	942752	205	0
0	942752	206	0
0	942752	207	-nan
0	942752	208	0
0	942752	209	-nan
0	942752	210	0
0	942752	211	-nan
0	942752	212	-nan
0	942752	213	0
0	942752	214	0
0	942752	215	0
0	942752	216	-nan
0	942752	217	0
0	942752	218	0
0	942752	219	-nan
0	942752	220	0
0	942752	221	0
0	942752	222	-nan
0	942752	223	0
0	942752	224	0
0	942752	225	0
0	942752	226	-nan
0	942752	227	0
0	942752	228	-nan
0	942752	229	0
0	942752	230	-nan
0	942752	231	0
0	942752	232	0
0	942752	233	0
0	942752	234	0
0	942752	235	-nan
0	942752	236	-nan
0	942752	237	-nan
0	942752	238	-nan
vector 1  abilene_network.node[1].content_store  hit_node[1]  ETV
1	942752	1	1
1	942752	2	1
1	942752	3	1
1	942752	4	1
1	942752	5	1
1	942752	6	1
1	942752	7	1
1	942752	8	1
1	942752	9	1
1	942752	10	1
1	942752	11	1
1	942752	12	1
1	942752	13	1
1	942752	14	1
1	942752	15	1
1	942752	16	1
1	942752	17	1
1	942752	18	1
1	942752	19	1
1	942752	20	1
1	942752	21	1
1	942752	22	0.875
1	942752	23	1
1	942752	24	1
1	942752	25	0.83333333333333
1	942752	26	1
1	942752	27	1
1	942752	28	0.66666666666667
1	942752	29	0.8
1	942752	30	0.33333333333333
1	942752	31	0.875
1	942752	32	0.5
1	942752	33	1
1	942752	34	0.5
1	942752	35	0.66666666666667
1	942752	36	0.8
1	942752	37	0.66666666666667
1	942752	38	1
1	942752	39	0
1	942752	40	0.5
1	942752	41	0.83333333333333
1	942752	42	1
1	942752	43	0
1	942752	44	1
1	942752	45	0.5
1	942752	46	0.66666666666667
1	942752	47	1
1	942752	48	0.33333333333333
1	942752	49	0.25
1	942752	50	0.33333333333333
1	942752	51	1
1	942752	52	0.66666666666667
1	942752	53	1
1	942752	54	1
1	942752	55	0.16666666666667
1	942752	56	1
1	942752	57	0
1	942752	58	0
1	942752	59	0
1	942752	60	0
1	942752	61	0.33333333333333
1	942752	62	0.66666666666667
1	942752	63	0.6
1	942752	64	0.75
1	942752	65	0.25
1	942752	66	0
1	942752	67	1
1	942752	68	0.75
1	942752	69	0.75
1	942752	70	0
1	942752	71	1
1	942752	72	0.16666666666667
1	942752	73	0.66666666666667
1	942752	74	0
1	942752	75	0.66666666666667
1	942752	76	0.125
1	942752	77	0
1	942752	78	1
1	942752	79	0
1	942752	80	0
1	942752	81	0.5
1	942752	82	0
1	942752	83	0
1	942752	84	0.66666666666667
1	942752	85	0
1	942752	86	0.33333333333333
1	942752	87	0.625
1	942752	88	0.42857142857143
1	942752	89	0.42857142857143
1	942752	90	0.6
1	942752	91	0
1	942752	92	0.66666666666667
1	942752	93	0
1	942752	94	0.75
1	942752	95	0
1	942752	96	0.16666666666667
1	942752	97	0
1	942752	98	0.75
1	942752	99	0
1	942752	100	1
1	942752	101	0.4
1	942752	102	0.16666666666667
1	942752	103	0.6
1	942752	104	0.75
1	942752	105	0
1	942752	106	0
1	942752	107	0
1	942752	108	0
1	942752	109	0
1	942752	110	0
1	942752	111	0.25
1	942752	112	1
1	942752	113	0.66666666666667
1	942752	114	0
1	942752	115	0
1	942752	116	0.5
1	942752	117	0
1	942752	118	0
1	942752	119	0.6
1	942752	120	0.33333333333333
1	942752	121	0
1	942752	122	0
1	942752	123	0.33333333333333
1	942752	124	0
1	942752	125	0
1	942752	126	0
1	942752	127	0
1	942752	128	0.5
1	942752	129	0.75
1	942752	130	0
1	942752	131	0
1	942752	132	0
1	942752	133	-nan
1	942752	134	0
1	942752	135	0
1	942752	136	0
1	942752	137	0
1	942752	138	0.5
1	942752	139	0
1	942752	140	0.2
1	942752	141	0
1	942752	142	0.33333333333333
1	942752	143	0
1	942752	144	0
1	942752	145	0
1	942752	146	0.4
1	942752	147	0
1	942752	148	0.42857142857143
1	942752	149	0
1	942752	150	1
1	942752	151	0
1	942752	152	0
1	942752	153	0
1	942752	154	0.28571428571429
1	942752	155	-nan
1	942752	156	0
1	942752	157	-nan
1	942752	158	0
1	942752	159	0
1	942752	160	0
1	942752	161	0
1	942752	162	1
1	942752	163	-nan
1	942752	164	0
1	942752	165	0
1	942752	166	0.5
1	942752	167	0
1	942752	168	0.5
1	942752	169	1
1	942752	170	0
1	942752	171	0
1	942752	172	0
1	942752	173	0
1	942752	174	0
1	942752	175	0.33333333333333
1	942752	176	0
1	942752	177	-nan
1	942752	178	0.28571428571429
1	942752	179	0.5
1	942752	180	0
1	942752	181	0
1	942752	182	1
1	942752	183	1
1	942752	184	0
1	942752	185	0
1	942752	186	0
1	942752	187	0
1	942752	188	0
1	942752	189	0
1	942752	190	0
1	942752	191	0
1	942752	192	0
1	942752	193	0
1	942752	194	0
1	942752	195	0.25
1	942752	196	0
1	942752	197	0
1	942752	198	0
1	942752	199	0
1	942752	200	0
1	942752	201	0
1	942752	202	0
1	942752	203	0
1	942752	204	0
1	942752	205	0
1	942752	206	0
1	942752	207	0
1	942752	208	0
1	942752	209	-nan
1	942752	210	0
1	942752	211	0
1	942752	212	-nan
1	942752	213	0
1	942752	214	0
1	942752	215	0
1	942752	216	0
1	942752	217	0
1	942752	218	0
1	942752	219	0
1	942752	220	0
1	942752	221	0
1	942752	222	1
1	942752	223	0
1	942752	224	0.75
1	942752	225	0
1	942752	226	0
1	942752	227	0
1	942752	228	0
1	942752	229	0
1	942752	230	0
1	942752	231	0
1	942752	232	0
1	942752	233	0
1	942752	234	0
1	942752	235	0
1	942752	236	0
1	942752	237	0
1	942752	238	0
vector 2  abilene_network.node[2].content_store  hit_node[2]  ETV
2	942752	1	1
2	942752	2	1
2	942752	3	1
2	942752	4	1
2	942752	5	1
2	942752	6	1
2	942752	7	1
2	942752	8	1
2	942752	9	1
2	942752	10	1
2	942752	11	1
2	942752	12	1
2	942752	13	0.91666666666667
2	942752	14	1
2	942752	15	0.83333333333333
2	942752	16	1
2	942752	17	1
2	942752	18	0.90909090909091
2	942752	19	1
2	942752	20	1
2	942752	21	0.83333333333333
2	942752	22	1
2	942752	23	0.9
2	942752	24	1
2	942752	25	1
2	942752	26	0.83333333333333
2	942752	27	0.66666666666667
2	942752	28	1
2	942752	29	0.875
2	942752	30	1
2	942752	31	1
2	942752	32	1
2	942752	33	1
2	942752	34	1
2	942752	35	0.85714285714286
2	942752	36	0
2	942752	37	0.7
2	942752	38	0
2	942752	39	0.16666666666667
2	942752	40	0.8
2	942752	41	0.83333333333333
2	942752	42	0
2	942752	43	0.85714285714286
2	942752	44	1
2	942752	45	0.71428571428571
2	942752	46	0.8
2	942752	47	0.33333333333333
2	942752	48	0.5
2	942752	49	0
2	942752	50	0.6
2	942752	51	0
2	942752	52	0.5
2	942752	53	-nan
2	942752	54	1
2	942752	55	0.16666666666667
2	942752	56	0
2	942752	57	0.2
2	942752	58	0.66666666666667
2	942752	59	0.4
2	942752	60	0
2	942752	61	0.6
2	942752	62	1
2	942752	63	1
2	942752	64	0.66666666666667
2	942752	65	0.14285714285714
2	942752	66	0
2	942752	67	0
2	942752	68	0.5
2	942752	69	1
2	942752	70	0
2	942752	71	0.66666666666667
2	942752	72	0.45454545454545
2	942752	73	1
2	942752	74	0
2	942752	75	0.66666666666667
2	942752	76	0.33333333333333
2	942752	77	0.28571428571429
2	942752	78	-nan
2	942752	79	0.16666666666667
2	942752	80	0
2	942752	81	1
2	942752	82	0.33333333333333
2	942752	83	0.4
2	942752	84	0
2	942752	85	0
2	942752	86	0.75
2	942752	87	0.33333333333333
2	942752	88	0.33333333333333
2	942752	89	0.33333333333333
2	942752	90	0.66666666666667
2	942752	91	0
2	942752	92	0.66666666666667
2	942752	93	0
2	942752	94	1
2	942752	95	0.25
2	942752	96	0.375
2	942752	97	0.4
2	942752	98	1
2	942752	99	0
2	942752	100	1
2	942752	101	0.16666666666667
2	942752	102	0.18181818181818
2	942752	103	0.6
2	942752	104	0.5
2	942752	105	0
2	942752	106	0
2	942752	107	0
2	942752	108	0
2	942752	109	0.25
2	942752	110	0.25
2	942752	111	0.6
2	942752	112	0.33333333333333
2	942752	113	1
2	942752	114	0.375
2	942752	115	0
2	942752	116	0
2	942752	117	0.16666666666667
2	942752	118	0.2
2	942752	119	0.25
2	942752	120	0.4
2	942752	121	0
2	942752	122	0
2	942752	123	1
2	942752	124	0
2	942752	125	0
2	942752	126	0
2	942752	127	0
2	942752	128	0
2	942752	129	0.66666666666667
2	942752	130	0
2	942752	131	0.2
2	942752	132	0.16666666666667
2	942752	133	-nan
2	942752	134	0.375
2	942752	135	0
2	942752	136	0
2	942752	137	0
2	942752	138	0.5
2	942752	139	0
2	942752	140	0.5
2	942752	141	0
2	942752	142	0.75
2	942752	143	0
2	942752	144	0
2	942752	145	0
2	942752	146	0.33333333333333
2	942752	147	0
2	942752	148	0.4
2	942752	149	0
2	942752	150	1
2	942752	151	0
2	942752	152	0.5
2	942752	153	0
2	942752	154	0.2
2	942752	155	0
2	942752	156	0
2	942752	157	0
2	942752	158	0.14285714285714
2	942752	159	0
2	942752	160	0
2	942752	161	0
2	942752	162	0
2	942752	163	0.33333333333333
2	942752	164	0
2	942752	165	0
2	942752	166	0
2	942752	167	0
2	942752	168	1
2	942752	169	0
2	942752	170	0.4
2	942752	171	0
2	942752	172	0
2	942752	173	0
2	942752	174	0
2	942752	175	0.57142857142857
2	942752	176	0
2	942752	177	0
2	942752	178	0.28571428571429
2	942752	179	1
2	942752	180	0
2	942752	181	0
2	942752	182	0
2	942752	183	0
2	942752	184	0
2	942752	185	0
2	942752	186	0
2	942752	187	0
2	942752	188	0
2	942752	189	0.14285714285714
2	942752	190	0
2	942752	191	0
2	942752	192	0
2	942752	193	0
2	942752	194	0
2	942752	195	0.2
2	942752	196	0
2	942752	197	0
2	942752	198	0
2	942752	199	0
2	942752	200	0
2	942752	201	0.8
2	942752	202	0
2	942752	203	0
2	942752	204	0
2	942752	205	0
2	942752	206	0.33333333333333
2	942752	207	1
2	942752	208	0
2	942752	209	0
2	942752	210	0
2	942752	211	0
2	942752	212	-nan
2	942752	213	0
2	942752	214	0
2	942752	215	0.14285714285714
2	942752	216	0
2	942752	217	0
2	942752	218	0
2	942752	219	0
2	942752	220	0
2	942752	221	0
2	942752	222	-nan
2	942752	223	0.25
2	942752	224	1
2	942752	225	0
2	942752	226	0
2	942752	227	0
2	942752	228	0
2	942752	229	0
2	942752	230	0
2	942752	231	0
2	942752	232	0
2	942752	233	0.33333333333333
2	942752	234	0.5
2	942752	235	0
2	942752	236	0
2	942752	237	0
2	942752	238	0
vector 3  abilene_network.node[3].content_store  hit_node[3]  ETV
3	942752	1	1
3	942752	2	1
3	942752	3	1
3	942752	4	1
3	942752	5	1
3	942752	6	1
3	942752	7	1
3	942752	8	1
3	942752	9	0.90909090909091
3	942752	10	1
3	942752	11	1
3	942752	12	1
3	942752	13	1
3	942752	14	1
3	942752	15	1
3	942752	16	1
3	942752	17	1
3	942752	18	0.9
3	942752	19	0.875
3	942752	20	1
3	942752	21	0.85714285714286
3	942752	22	1
3	942752	23	1
3	942752	24	0.8
3	942752	25	0.2
3	942752	26	0.88888888888889
3	942752	27	0.375
3	942752	28	0.8
3	942752	29	1
3	942752	30	1
3	942752	31	0.875
3	942752	32	0.25
3	942752	33	0.33333333333333
3	942752	34	0.5
3	942752	35	0.63636363636364
3	942752	36	0
3	942752	37	0.6
3	942752	38	0
3	942752	39	0.5
3	942752	40	0.875
3	942752	41	1
3	942752	42	0
3	942752	43	0
3	942752	44	0
3	942752	45	0.83333333333333
3	942752	46	0.66666666666667
3	942752	47	0.25
3	942752	48	0
3	942752	49	0
3	942752	50	0.33333333333333
3	942752	51	0
3	942752	52	0.33333333333333
3	942752	53	0
3	942752	54	0.8
3	942752	55	0.18181818181818
3	942752	56	0.5
3	942752	57	0.5
3	942752	58	1
3	942752	59	0.57142857142857
3	942752	60	0
3	942752	61	0
3	942752	62	0
3	942752	63	0
3	942752	64	0
3	942752	65	0.14285714285714
3	942752	66	0.5
3	942752	67	0.16666666666667
3	942752	68	1
3	942752	69	1
3	942752	70	0
3	942752	71	0
3	942752	72	0.1
3	942752	73	0
3	942752	74	0.27272727272727
3	942752	75	1
3	942752	76	0.14285714285714
3	942752	77	0.28571428571429
3	942752	78	0.33333333333333
3	942752	79	0.5
3	942752	80	0
3	942752	81	1
3	942752	82	0.28571428571429
3	942752	83	0.42857142857143
3	942752	84	0.25
3	942752	85	0
3	942752	86	1
3	942752	87	0.5
3	942752	88	0.375
3	942752	89	0.33333333333333
3	942752	90	0.5
3	942752	91	0
3	942752	92	0.33333333333333
3	942752	93	0
3	942752	94	-nan
3	942752	95	0.25
3	942752	96	0.42857142857143
3	942752	97	0.33333333333333
3	942752	98	0
3	942752	99	0
3	942752	100	0.5
3	942752	101	0.63636363636364
3	942752	102	0.2
3	942752	103	0.5
3	942752	104	0.8
3	942752	105	0
3	942752	106	0
3	942752	107	0.4
3	942752	108	0
3	942752	109	0.83333333333333
3	942752	110	0.5
3	942752	111	0.2
3	942752	112	0
3	942752	113	0
3	942752	114	0.28571428571429
3	942752	115	0
3	942752	116	0.375
3	942752	117	0.16666666666667
3	942752	118	0.4
3	942752	119	0.25
3	942752	120	0.6
3	942752	121	0.25
3	942752	122	0
3	942752	123	0
3	942752	124	0.16666666666667
3	942752	125	0
3	942752	126	0.090909090909091
3	942752	127	0
3	942752	128	0
3	942752	129	0
3	942752	130	0
3	942752	131	0.33333333333333
3	942752	132	0.5
3	942752	133	0
3	942752	134	0.28571428571429
3	942752	135	0
3	942752	136	0
3	942752	137	0
3	942752	138	0.5
3	942752	139	0
3	942752	140	0.33333333333333
3	942752	141	0
3	942752	142	0.8
3	942752	143	0
3	942752	144	0
3	942752	145	0
3	942752	146	0.5
3	942752	147	0
3	942752	148	0.25
3	942752	149	0
3	942752	150	0
3	942752	151	0
3	942752	152	0.5
3	942752	153	0
3	942752	154	0.2
3	942752	155	0.4
3	942752	156	0
3	942752	157	0
3	942752	158	0.11111111111111
3	942752	159	0
3	942752	160	0
3	942752	161	0
3	942752	162	0
3	942752	163	0.25
3	942752	164	0
3	942752	165	0
3	942752	166	0
3	942752	167	0
3	942752	168	0
3	942752	169	0
3	942752	170	0.33333333333333
3	942752	171	0
3	942752	172	0
3	942752	173	0
3	942752	174	0
3	942752	175	0.5
3	942752	176	0
3	942752	177	0
3	942752	178	0.625
3	942752	179	0
3	942752	180	0
3	942752	181	0
3	942752	182	0
3	942752	183	0
3	942752	184	0
3	942752	185	0
3	942752	186	0
3	942752	187	0
3	942752	188	0
3	942752	189	0.16666666666667
3	942752	190	0
3	942752	191	0
3	942752	192	0
3	942752	193	0
3	942752	194	0
3	942752	195	0.2
3	942752	196	0
3	942752	197	0
3	942752	198	0
3	942752	199	0
3	942752	200	0
3	942752	201	0
3	942752	202	0
3	942752	203	0
3	942752	204	0
3	942752	205	0
3	942752	206	0.33333333333333
3	942752	207	0
3	942752	208	0
3	942752	209	0
3	942752	210	0
3	942752	211	0
3	942752	212	0
3	942752	213	0
3	942752	214	0
3	942752	215	0.16666666666667
3	942752	216	0
3	942752	217	0
3	942752	218	0
3	942752	219	0
3	942752	220	0
3	942752	221	0.16666666666667
3	942752	222	-nan
3	942752	223	0.25
3	942752	224	0
3	942752	225	0
3	942752	226	0
3	942752	227	0.16666666666667
3	942752	228	0
3	942752	229	0
3	942752	230	0
3	942752	231	0
3	942752	232	0
3	942752	233	0.5
3	942752	234	0
3	942752	235	0
3	942752	236	0
3	942752	237	0
3	942752	238	0
vector 4  abilene_network.node[4].content_store  hit_node[4]  ETV
4	942752	1	1
4	942752	2	1
4	942752	3	1
4	942752	4	1
4	942752	5	1
4	942752	6	1
4	942752	7	1
4	942752	8	1
4	942752	9	1
4	942752	10	1
4	942752	11	1
4	942752	12	0.73333333333333
4	942752	13	1
4	942752	14	0.66666666666667
4	942752	15	0.44444444444444
4	942752	16	1
4	942752	17	0
4	942752	18	1
4	942752	19	1
4	942752	20	0.11111111111111
4	942752	21	0.375
4	942752	22	0
4	942752	23	0.75
4	942752	24	0.42857142857143
4	942752	25	0.44444444444444
4	942752	26	0.54545454545455
4	942752	27	0.3
4	942752	28	0.5
4	942752	29	0.28571428571429
4	942752	30	0
4	942752	31	0.8
4	942752	32	0
4	942752	33	0.4
4	942752	34	0.57142857142857
4	942752	35	0.25
4	942752	36	0
4	942752	37	0.66666666666667
4	942752	38	0.14285714285714
4	942752	39	0.375
4	942752	40	1
4	942752	41	0.8
4	942752	42	0
4	942752	43	0.88888888888889
4	942752	44	0
4	942752	45	0.6
4	942752	46	0
4	942752	47	0
4	942752	48	0
4	942752	49	0
4	942752	50	0.16666666666667
4	942752	51	0
4	942752	52	0.3
4	942752	53	0
4	942752	54	0
4	942752	55	0.2
4	942752	56	0.6
4	942752	57	0.6
4	942752	58	-nan
4	942752	59	0.14285714285714
4	942752	60	0
4	942752	61	0
4	942752	62	0
4	942752	63	0
4	942752	64	0.14285714285714
4	942752	65	0.11111111111111
4	942752	66	0.25
4	942752	67	0.5
4	942752	68	0
4	942752	69	0
4	942752	70	0
4	942752	71	0
4	942752	72	0.090909090909091
4	942752	73	0
4	942752	74	0.2
4	942752	75	0
4	942752	76	0.28571428571429
4	942752	77	0.33333333333333
4	942752	78	0.4
4	942752	79	0.25
4	942752	80	0
4	942752	81	0
4	942752	82	0.2
4	942752	83	0.33333333333333
4	942752	84	0.4
4	942752	85	0.11111111111111
4	942752	86	0
4	942752	87	0.5
4	942752	88	0.25
4	942752	89	0.16666666666667
4	942752	90	0.33333333333333
4	942752	91	0.1
4	942752	92	0
4	942752	93	0.1
4	942752	94	0
4	942752	95	0
4	942752	96	0.375
4	942752	97	0.4
4	942752	98	0
4	942752	99	0.18181818181818
4	942752	100	0
4	942752	101	0.14285714285714
4	942752	102	0.1
4	942752	103	0.5
4	942752	104	0
4	942752	105	0
4	942752	106	0.4
4	942752	107	0.25
4	942752	108	0
4	942752	109	1
4	942752	110	0.25
4	942752	111	0.16666666666667
4	942752	112	0
4	942752	113	0
4	942752	114	0.125
4	942752	115	0.2
4	942752	116	0
4	942752	117	0.25
4	942752	118	0.25
4	942752	119	0.25
4	942752	120	0.25
4	942752	121	0.16666666666667
4	942752	122	0
4	942752	123	0
4	942752	124	0.2
4	942752	125	0
4	942752	126	0.23076923076923
4	942752	127	0
4	942752	128	0
4	942752	129	0.4
4	942752	130	0
4	942752	131	0.25
4	942752	132	0.2
4	942752	133	0
4	942752	134	0.44444444444444
4	942752	135	0
4	942752	136	0.11111111111111
4	942752	137	0
4	942752	138	0
4	942752	139	0
4	942752	140	0.75
4	942752	141	0
4	942752	142	1
4	942752	143	0
4	942752	144	0
4	942752	145	0
4	942752	146	0
4	942752	147	0
4	942752	148	0
4	942752	149	0
4	942752	150	0
4	942752	151	0
4	942752	152	0.66666666666667
4	942752	153	0
4	942752	154	0.16666666666667
4	942752	155	0.25
4	942752	156	0
4	942752	157	0
4	942752	158	0.11111111111111
4	942752	159	0.1
4	942752	160	0.14285714285714
4	942752	161	0
4	942752	162	0
4	942752	163	0
4	942752	164	0
4	942752	165	0
4	942752	166	0
4	942752	167	0
4	942752	168	0
4	942752	169	0
4	942752	170	0.25
4	942752	171	0
4	942752	172	0
4	942752	173	0
4	942752	174	0
4	942752	175	0.16666666666667
4	942752	176	0
4	942752	177	0
4	942752	178	0.33333333333333
4	942752	179	0
4	942752	180	0
4	942752	181	0
4	942752	182	0
4	942752	183	0
4	942752	184	0
4	942752	185	0
4	942752	186	0
4	942752	187	0
4	942752	188	0.33333333333333
4	942752	189	0.14285714285714
4	942752	190	0
4	942752	191	0
4	942752	192	0
4	942752	193	0
4	942752	194	0
4	942752	195	0.2
4	942752	196	0
4	942752	197	0
4	942752	198	0
4	942752	199	0
4	942752	200	0
4	942752	201	0
4	942752	202	0
4	942752	203	0
4	942752	204	0
4	942752	205	0
4	942752	206	0.33333333333333
4	942752	207	0
4	942752	208	0
4	942752	209	0
4	942752	210	0
4	942752	211	0
4	942752	212	0
4	942752	213	0.14285714285714
4	942752	214	0
4	942752	215	0.16666666666667
4	942752	216	0
4	942752	217	0
4	942752	218	0
4	942752	219	0
4	942752	220	0
4	942752	221	0.16666666666667
4	942752	222	-nan
4	942752	223	0
4	942752	224	0
4	942752	225	0
4	942752	226	0
4	942752	227	0.2
4	942752	228	0
4	942752	229	0
4	942752	230	0
4	942752	231	0
4	942752	232	0
4	942752	233	0.4
4	942752	234	0
4	942752	235	0
4	942752	236	0
4	942752	237	0
4	942752	238	0
vector 5  abilene_network.node[5].content_store  hit_node[5]  ETV
5	942752	1	0.58415841584158
5	942752	2	0.35593220338983
5	942752	3	0.15625
5	942752	4	0.33333333333333
5	942752	5	0.1
5	942752	6	0.1304347826087
5	942752	7	0.16666666666667
5	942752	8	0.1
5	942752	9	0.11764705882353
5	942752	10	0.066666666666667
5	942752	11	0.083333333333333
5	942752	12	0.11764705882353
5	942752	13	0.071428571428571
5	942752	14	0.066666666666667
5	942752	15	0.13636363636364
5	942752	16	0.14285714285714
5	942752	17	0.2
5	942752	18	0.2
5	942752	19	0.1
5	942752	20	0
5	942752	21	0.22222222222222
5	942752	22	0
5	942752	23	0.13333333333333
5	942752	24	0
5	942752	25	0.22222222222222
5	942752	26	0.14285714285714
5	942752	27	0.24
5	942752	28	0.090909090909091
5	942752	29	0.27777777777778
5	942752	30	0
5	942752	31	0.076923076923077
5	942752	32	0.15384615384615
5	942752	33	0.11111111111111
5	942752	34	0.15384615384615
5	942752	35	0.2
5	942752	36	0.14285714285714
5	942752	37	0.14285714285714
5	942752	38	0.11111111111111
5	942752	39	0.15384615384615
5	942752	40	0
5	942752	41	0
5	942752	42	0
5	942752	43	0.18181818181818
5	942752	44	0
5	942752	45	0.11111111111111
5	942752	46	0
5	942752	47	0.076923076923077
5	942752	48	0.066666666666667
5	942752	49	0.043478260869565
5	942752	50	0
5	942752	51	0.047619047619048
5	942752	52	0.23076923076923
5	942752	53	0.083333333333333
5	942752	54	0.16666666666667
5	942752	55	0.0625
5	942752	56	0.23076923076923
5	942752	57	0.076923076923077
5	942752	58	0.25
5	942752	59	0.13333333333333
5	942752	60	0
5	942752	61	0.066666666666667
5	942752	62	0.15384615384615
5	942752	63	0
5	942752	64	0
5	942752	65	0.11111111111111
5	942752	66	0.1875
5	942752	67	0.27272727272727
5	942752	68	0
5	942752	69	0
5	942752	70	0.090909090909091
5	942752	71	0.076923076923077
5	942752	72	0.058823529411765
5	942752	73	0.090909090909091
5	942752	74	0.076923076923077
5	942752	75	0.11111111111111
5	942752	76	0.076923076923077
5	942752	77	0.16666666666667
5	942752	78	0.14285714285714
5	942752	79	0.30769230769231
5	942752	80	0
5	942752	81	0.1
5	942752	82	0.090909090909091
5	942752	83	0.16666666666667
5	942752	84	0.071428571428571
5	942752	85	0.043478260869565
5	942752	86	0
5	942752	87	0.1
5	942752	88	0.2
5	942752	89	0.22222222222222
5	942752	90	0.125
5	942752	91	0.076923076923077
5	942752	92	0.16666666666667
5	942752	93	0.15789473684211
5	942752	94	0
5	942752	95	0.1
5	942752	96	0.30769230769231
5	942752	97	0.083333333333333
5	942752	98	0.14285714285714
5	942752	99	0.0625
5	942752	100	0.1
5	942752	101	0.066666666666667
5	942752	102	0.076923076923077
5	942752	103	0
5	942752	104	0.16666666666667
5	942752	105	0
5	942752	106	0.27272727272727
5	942752	107	0.125
5	942752	108	0.090909090909091
5	942752	109	0.25
5	942752	110	0.1
5	942752	111	0.2
5	942752	112	0.14285714285714
5	942752	113	0.2
5	942752	114	0.090909090909091
5	942752	115	0.14285714285714
5	942752	116	0.076923076923077
5	942752	117	0.16666666666667
5	942752	118	0.11111111111111
5	942752	119	0.16666666666667
5	942752	120	0.33333333333333
5	942752	121	0.083333333333333
5	942752	122	0.071428571428571
5	942752	123	0
5	942752	124	0.14285714285714
5	942752	125	0
5	942752	126	0.058823529411765
5	942752	127	0.083333333333333
5	942752	128	0.090909090909091
5	942752	129	0
5	942752	130	0
5	942752	131	0.25
5	942752	132	0.076923076923077
5	942752	133	0.2
5	942752	134	0.14285714285714
5	942752	135	0.11111111111111
5	942752	136	0.090909090909091
5	942752	137	0.1
5	942752	138	0
5	942752	139	0
5	942752	140	0.14285714285714
5	942752	141	0
5	942752	142	0
5	942752	143	0.125
5	942752	144	0
5	942752	145	0
5	942752	146	0.2
5	942752	147	0.1
5	942752	148	0.090909090909091
5	942752	149	0.083333333333333
5	942752	150	0
5	942752	151	0
5	942752	152	0
5	942752	153	0
5	942752	154	0.2
5	942752	155	0.125
5	942752	156	0
5	942752	157	0.25
5	942752	158	0.083333333333333
5	942752	159	0.15384615384615
5	942752	160	0.11111111111111
5	942752	161	0
5	942752	162	0
5	942752	163	0
5	942752	164	0.076923076923077
5	942752	165	0.11111111111111
5	942752	166	0
5	942752	167	0
5	942752	168	0.16666666666667
5	942752	169	0.090909090909091
5	942752	170	0.083333333333333
5	942752	171	0.18181818181818
5	942752	172	0.1
5	942752	173	0
5	942752	174	0.16666666666667
5	942752	175	0.1
5	942752	176	0.15384615384615
5	942752	177	0
5	942752	178	0.1
5	942752	179	0
5	942752	180	0.15789473684211
5	942752	181	0.14285714285714
5	942752	182	0
5	942752	183	0
5	942752	184	0
5	942752	185	0
5	942752	186	0.18181818181818
5	942752	187	0
5	942752	188	0.14285714285714
5	942752	189	0.3
5	942752	190	0.11111111111111
5	942752	191	0
5	942752	192	0
5	942752	193	0
5	942752	194	0
5	942752	195	0.125
5	942752	196	0.25
5	942752	197	0
5	942752	198	0
5	942752	199	0
5	942752	200	0.25
5	942752	201	0.083333333333333
5	942752	202	0.16666666666667
5	942752	203	0
5	942752	204	0
5	942752	205	0.076923076923077
5	942752	206	0.28571428571429
5	942752	207	0.14285714285714
5	942752	208	0
5	942752	209	0
5	942752	210	0.1
5	942752	211	0
5	942752	212	0
5	942752	213	0.25
5	942752	214	0
5	942752	215	0.125
5	942752	216	0
5	942752	217	0
5	942752	218	0
5	942752	219	0
5	942752	220	0
5	942752	221	0.3
5	942752	222	0
5	942752	223	0
5	942752	224	0
5	942752	225	0.16666666666667
5	942752	226	0
5	942752	227	0.16666666666667
5	942752	228	0
5	942752	229	0
5	942752	230	0
5	942752	231	0
5	942752	232	0
5	942752	233	0.14285714285714
5	942752	234	0
5	942752	235	0.1
5	942752	236	0.2
5	942752	237	0.33333333333333
5	942752	238	0
vector 6  abilene_network.node[6].content_store  hit_node[6]  ETV
6	942752	1	1
6	942752	2	1
6	942752	3	1
6	942752	4	1
6	942752	5	1
6	942752	6	1
6	942752	7	1
6	942752	8	1
6	942752	9	1
6	942752	10	1
6	942752	11	1
6	942752	12	1
6	942752	13	1
6	942752	14	1
6	942752	15	0.16666666666667
6	942752	16	0
6	942752	17	1
6	942752	18	1
6	942752	19	1
6	942752	20	0.25
6	942752	21	0.54545454545455
6	942752	22	0.6
6	942752	23	0.45454545454545
6	942752	24	1
6	942752	25	0.42857142857143
6	942752	26	0.55555555555556
6	942752	27	0.11111111111111
6	942752	28	0
6	942752	29	0.75
6	942752	30	1
6	942752	31	0.33333333333333
6	942752	32	1
6	942752	33	1
6	942752	34	0
6	942752	35	0.26666666666667
6	942752	36	0.75
6	942752	37	0
6	942752	38	0
6	942752	39	1
6	942752	40	0
6	942752	41	0
6	942752	42	0.4
6	942752	43	0.125
6	942752	44	0
6	942752	45	0.25
6	942752	46	0
6	942752	47	0
6	942752	48	0.5
6	942752	49	0.25
6	942752	50	0
6	942752	51	0
6	942752	52	0.33333333333333
6	942752	53	0
6	942752	54	0.14285714285714
6	942752	55	0
6	942752	56	0.16666666666667
6	942752	57	0
6	942752	58	0
6	942752	59	0
6	942752	60	0.8
6	942752	61	0
6	942752	62	0.5
6	942752	63	0.5
6	942752	64	-nan
6	942752	65	1
6	942752	66	0.125
6	942752	67	0.25
6	942752	68	0
6	942752	69	1
6	942752	70	0.6
6	942752	71	0.45454545454545
6	942752	72	0
6	942752	73	0.33333333333333
6	942752	74	0.5
6	942752	75	0
6	942752	76	0
6	942752	77	0
6	942752	78	0
6	942752	79	0.4
6	942752	80	0
6	942752	81	0.16666666666667
6	942752	82	0
6	942752	83	0.66666666666667
6	942752	84	0
6	942752	85	0
6	942752	86	0
6	942752	87	0
6	942752	88	0
6	942752	89	0.71428571428571
6	942752	90	0
6	942752	91	0
6	942752	92	0.5
6	942752	93	0.16666666666667
6	942752	94	0
6	942752	95	0.75
6	942752	96	0.14285714285714
6	942752	97	0
6	942752	98	0
6	942752	99	0
6	942752	100	0.5
6	942752	101	0
6	942752	102	0.66666666666667
6	942752	103	0
6	942752	104	0.5
6	942752	105	1
6	942752	106	0
6	942752	107	0
6	942752	108	0.4
6	942752	109	0.6
6	942752	110	0
6	942752	111	0
6	942752	112	0.66666666666667
6	942752	113	0.6
6	942752	114	0
6	942752	115	-nan
6	942752	116	0
6	942752	117	0
6	942752	118	0
6	942752	119	0
6	942752	120	0.5
6	942752	121	0
6	942752	122	0
6	942752	123	0
6	942752	124	0
6	942752	125	0
6	942752	126	0
6	942752	127	0.5
6	942752	128	0
6	942752	129	0
6	942752	130	0
6	942752	131	0.2
6	942752	132	0
6	942752	133	0.33333333333333
6	942752	134	0
6	942752	135	0.5
6	942752	136	0.5
6	942752	137	0.5
6	942752	138	0
6	942752	139	0
6	942752	140	0
6	942752	141	0
6	942752	142	0
6	942752	143	0
6	942752	144	0
6	942752	145	0
6	942752	146	0.55555555555556
6	942752	147	0
6	942752	148	0.2
6	942752	149	0.25
6	942752	150	0
6	942752	151	0.33333333333333
6	942752	152	0
6	942752	153	0.5
6	942752	154	0
6	942752	155	0
6	942752	156	0
6	942752	157	0.5
6	942752	158	0
6	942752	159	0.2
6	942752	160	0
6	942752	161	0
6	942752	162	0
6	942752	163	0
6	942752	164	0
6	942752	165	0
6	942752	166	0
6	942752	167	0
6	942752	168	0
6	942752	169	0
6	942752	170	0
6	942752	171	0
6	942752	172	0
6	942752	173	0
6	942752	174	0.25
6	942752	175	0