version 2
run General-11-20150311-18:59:38-28966
attr D fix0.1
attr F spr
attr R lru
attr a 0.7
attr configname General
attr datetime 20150311-18:59:38
attr experiment General
attr inifile omnetpp.ini
attr iterationvars "$net=abilene, $rep=0, $a=0.7, $F=spr, $ttl=1000, $D=fix0.1, $R=lru"
attr iterationvars2 "$net=abilene, $rep=0, $a=0.7, $F=spr, $ttl=1000, $D=fix0.1, $R=lru, $repetition=0"
attr measurement "$net=abilene, $rep=0, $a=0.7, $F=spr, $ttl=1000, $D=fix0.1, $R=lru"
attr net abilene
attr network networks.${net=abilene}_network
attr processid 28966
attr rep 0
attr repetition 0
attr replication #0
attr resultdir results
attr runnumber 11
attr seedset 0
attr ttl 1000

vector 0  abilene_network.node[0].content_store  hit_node[0]  ETV
0	578777	1	1
0	578777	2	1
0	578777	3	0.71428571428571
0	578777	4	0.85714285714286
0	578777	5	0.27272727272727
0	578777	6	0
0	578777	7	1
0	578777	8	1
0	578777	9	0.42857142857143
0	578777	10	0
0	578777	11	0.625
0	578777	12	1
0	578777	13	0.33333333333333
0	578777	14	0
0	578777	15	0
0	578777	16	0
0	578777	17	0
0	578777	18	1
0	578777	19	0
0	578777	20	0
0	578777	21	0
0	578777	22	0.83333333333333
0	578777	23	0
0	578777	24	0
0	578777	25	0.8
0	578777	26	0
0	578777	27	1
0	578777	28	0
0	578777	29	0
0	578777	30	0
0	578777	31	0
0	578777	32	0
0	578777	33	0
0	578777	34	0.25
0	578777	35	0
0	578777	36	0
0	578777	37	0
0	578777	38	0
0	578777	39	0
0	578777	40	0.5
0	578777	41	0.5
0	578777	42	1
0	578777	43	1
0	578777	44	0
0	578777	45	0
0	578777	46	0
0	578777	47	0
0	578777	48	0
0	578777	49	0
0	578777	50	0
0	578777	51	0
0	578777	52	-nan
0	578777	53	0
0	578777	54	0
0	578777	55	0
0	578777	56	0
0	578777	57	0
0	578777	58	0
0	578777	59	0
0	578777	60	0
0	578777	61	0
0	578777	62	0
0	578777	63	0
0	578777	64	0
0	578777	65	0
0	578777	66	0
0	578777	67	0
0	578777	68	0
0	578777	69	-nan
0	578777	70	0
0	578777	71	0
0	578777	72	-nan
0	578777	73	0
0	578777	74	-nan
0	578777	75	0
0	578777	76	0
0	578777	77	0
0	578777	78	0
0	578777	79	0
0	578777	80	0
0	578777	81	0
0	578777	82	0
0	578777	83	-nan
0	578777	84	-nan
0	578777	85	0
0	578777	86	0
0	578777	87	0
0	578777	88	0
0	578777	89	0
0	578777	90	0
0	578777	91	0
0	578777	92	0
0	578777	93	0
0	578777	94	-nan
0	578777	95	0
0	578777	96	0.5
0	578777	97	0
0	578777	98	0
0	578777	99	0
0	578777	100	-nan
0	578777	101	0
0	578777	102	-nan
0	578777	103	0
0	578777	104	0
0	578777	105	0
0	578777	106	0
0	578777	107	0
0	578777	108	0
0	578777	109	-nan
0	578777	110	-nan
0	578777	111	0.5
0	578777	112	-nan
0	578777	113	1
0	578777	114	-nan
0	578777	115	0
0	578777	116	-nan
0	578777	117	0
0	578777	118	0
0	578777	119	-nan
0	578777	120	0
0	578777	121	-nan
0	578777	122	0
0	578777	123	0
0	578777	124	0
0	578777	125	0
0	578777	126	0
0	578777	127	0
0	578777	128	0
0	578777	129	0
0	578777	130	0
0	578777	131	-nan
0	578777	132	0.33333333333333
0	578777	133	0
0	578777	134	0.5
0	578777	135	-nan
0	578777	136	-nan
0	578777	137	0
0	578777	138	-nan
0	578777	139	-nan
0	578777	140	0
0	578777	141	0
0	578777	142	1
0	578777	143	-nan
0	578777	144	-nan
0	578777	145	-nan
0	578777	146	-nan
0	578777	147	0
0	578777	148	-nan
0	578777	149	-nan
0	578777	150	-nan
0	578777	151	0
0	578777	152	0
0	578777	153	-nan
0	578777	154	-nan
0	578777	155	-nan
0	578777	156	0
0	578777	157	-nan
0	578777	158	0
0	578777	159	-nan
0	578777	160	-nan
0	578777	161	0
0	578777	162	-nan
0	578777	163	-nan
0	578777	164	0
0	578777	165	0
0	578777	166	0
0	578777	167	0
0	578777	168	0
0	578777	169	0
0	578777	170	0
0	578777	171	0
0	578777	172	0
0	578777	173	0
0	578777	174	0
0	578777	175	-nan
0	578777	176	-nan
0	578777	177	0
0	578777	178	-nan
0	578777	179	0
0	578777	180	-nan
0	578777	181	0
0	578777	182	-nan
0	578777	183	-nan
0	578777	184	0
0	578777	185	0
0	578777	186	0
0	578777	187	-nan
0	578777	188	-nan
0	578777	189	0.5
0	578777	190	0
0	578777	191	0
0	578777	192	0
0	578777	193	0
0	578777	194	0
0	578777	195	1
0	578777	196	0
0	578777	197	0
0	578777	198	0
0	578777	199	-nan
0	578777	200	-nan
0	578777	201	0
0	578777	202	0
0	578777	203	-nan
0	578777	204	0
0	578777	205	0
0	578777	206	0
0	578777	207	-nan
0	578777	208	0
0	578777	209	-nan
0	578777	210	0
0	578777	211	-nan
0	578777	212	0
0	578777	213	-nan
0	578777	214	0
0	578777	215	0
0	578777	216	0
0	578777	217	-nan
0	578777	218	0
0	578777	219	-nan
0	578777	220	0
0	578777	221	0
0	578777	222	0
0	578777	223	1
0	578777	224	0
0	578777	225	0
0	578777	226	-nan
0	578777	227	-nan
0	578777	228	-nan
0	578777	229	-nan
0	578777	230	0
0	578777	231	0
0	578777	232	-nan
0	578777	233	1
0	578777	234	-nan
0	578777	235	-nan
0	578777	236	-nan
0	578777	237	0
0	578777	238	-nan
0	578777	239	0
0	578777	240	0
0	578777	241	-nan
0	578777	242	0
0	578777	243	-nan
0	578777	244	-nan
0	578777	245	0
0	578777	246	-nan
0	578777	247	0
0	578777	248	0
0	578777	249	-nan
0	578777	250	0
0	578777	251	0
0	578777	252	-nan
0	578777	253	-nan
0	578777	254	-nan
0	578777	255	-nan
0	578777	256	0
0	578777	257	0
0	578777	258	-nan
0	578777	259	0
0	578777	260	0
0	578777	261	0
0	578777	262	-nan
0	578777	263	-nan
0	578777	264	-nan
0	578777	265	-nan
0	578777	266	0
0	578777	267	0
0	578777	268	0
0	578777	269	0
0	578777	270	-nan
0	578777	271	0
0	578777	272	0
0	578777	273	-nan
0	578777	274	-nan
0	578777	275	-nan
0	578777	276	0
0	578777	277	-nan
0	578777	278	-nan
0	578777	279	0.5
0	578777	280	-nan
0	578777	281	0
0	578777	282	0
0	578777	283	-nan
0	578777	284	-nan
0	578777	285	-nan
0	578777	286	0
0	578777	287	-nan
0	578777	288	0
0	578777	289	-nan
0	578777	290	0
0	578777	291	0
0	578777	292	-nan
0	578777	293	-nan
0	578777	294	-nan
0	578777	295	0
0	578777	296	0
0	578777	297	-nan
0	578777	298	-nan
0	578777	299	-nan
0	578777	300	0
0	578777	301	-nan
0	578777	302	-nan
0	578777	303	0
0	578777	304	0
0	578777	305	-nan
0	578777	306	0
0	578777	307	0
0	578777	308	-nan
0	578777	309	0
0	578777	310	-nan
0	578777	311	0
0	578777	312	0
0	578777	313	0
0	578777	314	-nan
0	578777	315	-nan
0	578777	316	-nan
0	578777	317	0
0	578777	318	0
0	578777	319	0
0	578777	320	-nan
0	578777	321	-nan
0	578777	322	0
0	578777	323	0
0	578777	324	-nan
0	578777	325	-nan
0	578777	326	-nan
0	578777	327	-nan
0	578777	328	0
0	578777	329	-nan
0	578777	330	-nan
0	578777	331	0
0	578777	332	-nan
0	578777	333	0
0	578777	334	-nan
0	578777	335	-nan
0	578777	336	-nan
0	578777	337	-nan
0	578777	338	-nan
0	578777	339	-nan
0	578777	340	-nan
0	578777	341	-nan
0	578777	342	0
0	578777	343	-nan
0	578777	344	-nan
0	578777	345	-nan
0	578777	346	0
0	578777	347	-nan
0	578777	348	-nan
0	578777	349	0
0	578777	350	0
0	578777	351	-nan
0	578777	352	0
0	578777	353	-nan
0	578777	354	-nan
0	578777	355	-nan
0	578777	356	-nan
0	578777	357	0
0	578777	358	-nan
0	578777	359	-nan
0	578777	360	-nan
0	578777	361	-nan
0	578777	362	0
0	578777	363	0
0	578777	364	0
0	578777	365	-nan
0	578777	366	0
0	578777	367	-nan
0	578777	368	-nan
0	578777	369	0
0	578777	370	0
0	578777	371	0
0	578777	372	-nan
0	578777	373	0
0	578777	374	-nan
0	578777	375	-nan
0	578777	376	-nan
0	578777	377	0
0	578777	378	-nan
0	578777	379	0
0	578777	380	-nan
0	578777	381	0.5
0	578777	382	-nan
0	578777	383	0
0	578777	384	0
0	578777	385	-nan
0	578777	386	-nan
0	578777	387	-nan
0	578777	388	0
0	578777	389	0
0	578777	390	-nan
0	578777	391	-nan
0	578777	392	-nan
0	578777	393	0
0	578777	394	-nan
0	578777	395	-nan
0	578777	396	0
0	578777	397	-nan
0	578777	398	0
0	578777	399	-nan
0	578777	400	-nan
0	578777	401	0
0	578777	402	0
0	578777	403	-nan
0	578777	404	0
0	578777	405	0
0	578777	406	0
0	578777	407	-nan
0	578777	408	-nan
0	578777	409	-nan
0	578777	410	-nan
0	578777	411	0
0	578777	412	0
0	578777	413	-nan
0	578777	414	-nan
0	578777	415	-nan
0	578777	416	-nan
0	578777	417	-nan
0	578777	418	0
0	578777	419	-nan
0	578777	420	-nan
0	578777	421	0
0	578777	422	-nan
0	578777	423	0
0	578777	424	-nan
0	578777	425	-nan
0	578777	426	-nan
0	578777	427	-nan
0	578777	428	0
0	578777	429	0
0	578777	430	0
0	578777	431	0.5
0	578777	432	-nan
0	578777	433	0
0	578777	434	-nan
0	578777	435	-nan
0	578777	436	-nan
0	578777	437	-nan
0	578777	438	0
0	578777	439	-nan
0	578777	440	-nan
0	578777	441	0
0	578777	442	-nan
0	578777	443	-nan
0	578777	444	-nan
0	578777	445	-nan
0	578777	446	0
0	578777	447	0
0	578777	448	-nan
0	578777	449	-nan
0	578777	450	-nan
0	578777	451	0
0	578777	452	-nan
0	578777	453	0
0	578777	454	-nan
0	578777	455	-nan
0	578777	456	0
0	578777	457	0
0	578777	458	0
0	578777	459	0
0	578777	460	0
0	578777	461	0
0	578777	462	-nan
0	578777	463	-nan
0	578777	464	-nan
0	578777	465	-nan
0	578777	466	-nan
0	578777	467	0
0	578777	468	0
0	578777	469	0.5
0	578777	470	-nan
0	578777	471	-nan
0	578777	472	0
0	578777	473	-nan
0	578777	474	-nan
0	578777	475	0
0	578777	476	0
0	578777	477	-nan
0	578777	478	-nan
0	578777	479	-nan
0	578777	480	-nan
0	578777	481	0
0	578777	482	-nan
0	578777	483	0
0	578777	484	-nan
0	578777	485	0
0	578777	486	-nan
0	578777	487	-nan
0	578777	488	0
0	578777	489	0
0	578777	490	-nan
0	578777	491	0
0	578777	492	-nan
0	578777	493	-nan
0	578777	494	-nan
0	578777	495	-nan
0	578777	496	-nan
0	578777	497	-nan
0	578777	498	0
0	578777	499	-nan
0	578777	500	-nan
0	578777	501	-nan
0	578777	502	-nan
0	578777	503	0
0	578777	504	-nan
0	578777	505	-nan
0	578777	506	-nan
0	578777	507	-nan
0	578777	508	-nan
0	578777	509	0
0	578777	510	0
0	578777	511	-nan
0	578777	512	0
0	578777	513	0
0	578777	514	0
0	578777	515	0
0	578777	516	0
0	578777	517	-nan
0	578777	518	-nan
0	578777	519	0
0	578777	520	0
0	578777	521	-nan
0	578777	522	-nan
0	578777	523	0
0	578777	524	-nan
0	578777	525	0
0	578777	526	-nan
0	578777	527	0
0	578777	528	0
0	578777	529	-nan
0	578777	530	-nan
0	578777	531	-nan
0	578777	532	0
0	578777	533	0
0	578777	534	0
0	578777	535	-nan
0	578777	536	0
0	578777	537	0
0	578777	538	0
0	578777	539	-nan
0	578777	540	-nan
0	578777	541	-nan
0	578777	542	0
0	578777	543	-nan
0	578777	544	-nan
0	578777	545	-nan
0	578777	546	-nan
0	578777	547	-nan
0	578777	548	-nan
0	578777	549	0
0	578777	550	-nan
0	578777	551	-nan
0	578777	552	0
0	578777	553	0
0	578777	554	0
0	578777	555	0
0	578777	556	-nan
0	578777	557	-nan
0	578777	558	0
0	578777	559	-nan
0	578777	560	-nan
0	578777	561	0
0	578777	562	-nan
0	578777	563	-nan
0	578777	564	0
0	578777	565	-nan
0	578777	566	-nan
0	578777	567	-nan
0	578777	568	-nan
0	578777	569	-nan
0	578777	570	-nan
0	578777	571	-nan
0	578777	572	0
0	578777	573	0
0	578777	574	-nan
0	578777	575	-nan
0	578777	576	-nan
0	578777	577	0
0	578777	578	-nan
0	578777	579	0
0	578777	580	0.5
0	578777	581	0
0	578777	582	0
0	578777	583	-nan
0	578777	584	-nan
0	578777	585	-nan
0	578777	586	0
0	578777	587	0
0	578777	588	-nan
0	578777	589	0
0	578777	590	0
0	578777	591	-nan
0	578777	592	-nan
0	578777	593	0
0	578777	594	-nan
0	578777	595	-nan
0	578777	596	-nan
0	578777	597	-nan
0	578777	598	-nan
0	578777	599	-nan
0	578777	600	0
0	578777	601	-nan
0	578777	602	0
0	578777	603	-nan
0	578777	604	-nan
0	578777	605	-nan
0	578777	606	-nan
0	578777	607	-nan
0	578777	608	0
0	578777	609	-nan
0	578777	610	-nan
0	578777	611	-nan
0	578777	612	-nan
0	578777	613	-nan
0	578777	614	-nan
0	578777	615	-nan
0	578777	616	-nan
0	578777	617	0
0	578777	618	-nan
0	578777	619	-nan
0	578777	620	-nan
0	578777	621	-nan
0	578777	622	-nan
0	578777	623	-nan
0	578777	624	0
0	578777	625	0
0	578777	626	-nan
0	578777	627	0
0	578777	628	0
0	578777	629	0
0	578777	630	0
0	578777	631	-nan
0	578777	632	-nan
0	578777	633	0
0	578777	634	-nan
0	578777	635	0
0	578777	636	-nan
0	578777	637	-nan
0	578777	638	0
0	578777	639	0
0	578777	640	-nan
0	578777	641	0
0	578777	642	-nan
0	578777	643	0
0	578777	644	0
0	578777	645	-nan
0	578777	646	0
0	578777	647	-nan
0	578777	648	-nan
0	578777	649	-nan
0	578777	650	0
0	578777	651	0
0	578777	652	-nan
0	578777	653	0
0	578777	654	-nan
0	578777	655	0
0	578777	656	-nan
0	578777	657	-nan
0	578777	658	-nan
0	578777	659	-nan
0	578777	660	-nan
0	578777	661	-nan
0	578777	662	0
0	578777	663	-nan
0	578777	664	-nan
0	578777	665	0
0	578777	666	-nan
0	578777	667	-nan
0	578777	668	-nan
0	578777	669	-nan
0	578777	670	-nan
0	578777	671	0
0	578777	672	-nan
0	578777	673	-nan
0	578777	674	-nan
0	578777	675	-nan
0	578777	676	-nan
0	578777	677	0
0	578777	678	-nan
0	578777	679	0
0	578777	680	-nan
0	578777	681	0
0	578777	682	-nan
0	578777	683	-nan
0	578777	684	-nan
0	578777	685	0
0	578777	686	0
0	578777	687	0
0	578777	688	0
0	578777	689	0
0	578777	690	-nan
0	578777	691	-nan
0	578777	692	0
0	578777	693	0
0	578777	694	-nan
0	578777	695	-nan
0	578777	696	0
0	578777	697	0
0	578777	698	-nan
0	578777	699	-nan
0	578777	700	-nan
0	578777	701	0
0	578777	702	-nan
0	578777	703	0.5
0	578777	704	-nan
0	578777	705	-nan
0	578777	706	-nan
0	578777	707	0
0	578777	708	-nan
0	578777	709	-nan
0	578777	710	0
0	578777	711	-nan
0	578777	712	-nan
0	578777	713	-nan
0	578777	714	-nan
0	578777	715	-nan
0	578777	716	0
0	578777	717	0
0	578777	718	0
0	578777	719	0
0	578777	720	0
0	578777	721	0
0	578777	722	-nan
0	578777	723	-nan
0	578777	724	-nan
0	578777	725	-nan
0	578777	726	-nan
0	578777	727	0
0	578777	728	-nan
0	578777	729	0
0	578777	730	-nan
0	578777	731	0
0	578777	732	-nan
0	578777	733	-nan
0	578777	734	0
0	578777	735	0
0	578777	736	-nan
0	578777	737	-nan
0	578777	738	-nan
0	578777	739	0
0	578777	740	-nan
0	578777	741	-nan
0	578777	742	-nan
0	578777	743	-nan
0	578777	744	-nan
0	578777	745	-nan
0	578777	746	-nan
0	578777	747	-nan
0	578777	748	-nan
0	578777	749	0
0	578777	750	-nan
0	578777	751	0
0	578777	752	0
0	578777	753	-nan
0	578777	754	-nan
0	578777	755	0
0	578777	756	-nan
0	578777	757	-nan
0	578777	758	0
0	578777	759	0
0	578777	760	0
0	578777	761	-nan
0	578777	762	-nan
0	578777	763	0
0	578777	764	-nan
0	578777	765	-nan
0	578777	766	0
0	578777	767	-nan
0	578777	768	-nan
0	578777	769	-nan
0	578777	770	0
0	578777	771	-nan
0	578777	772	0
0	578777	773	-nan
0	578777	774	-nan
0	578777	775	-nan
0	578777	776	-nan
0	578777	777	-nan
0	578777	778	-nan
0	578777	779	-nan
0	578777	780	0
0	578777	781	0
0	578777	782	-nan
0	578777	783	-nan
0	578777	784	-nan
0	578777	785	-nan
0	578777	786	-nan
0	578777	787	-nan
0	578777	788	-nan
0	578777	789	-nan
0	578777	790	-nan
0	578777	791	-nan
0	578777	792	0
0	578777	793	-nan
0	578777	794	-nan
0	578777	795	-nan
0	578777	796	0
0	578777	797	0
0	578777	798	-nan
0	578777	799	0
0	578777	800	-nan
0	578777	801	-nan
0	578777	802	0
0	578777	803	-nan
0	578777	804	0
0	578777	805	-nan
0	578777	806	0
0	578777	807	-nan
0	578777	808	-nan
0	578777	809	-nan
0	578777	810	-nan
0	578777	811	-nan
0	578777	812	-nan
0	578777	813	-nan
0	578777	814	-nan
0	578777	815	-nan
0	578777	816	-nan
0	578777	817	0
0	578777	818	-nan
0	578777	819	-nan
0	578777	820	-nan
0	578777	821	-nan
0	578777	822	0
0	578777	823	0
0	578777	824	-nan
0	578777	825	-nan
0	578777	826	-nan
0	578777	827	-nan
0	578777	828	0
0	578777	829	-nan
0	578777	830	-nan
0	578777	831	-nan
0	578777	832	-nan
0	578777	833	0
0	578777	834	0
0	578777	835	-nan
0	578777	836	-nan
0	578777	837	0
0	578777	838	0
0	578777	839	-nan
0	578777	840	-nan
0	578777	841	-nan
0	578777	842	-nan
0	578777	843	-nan
0	578777	844	-nan
0	578777	845	-nan
0	578777	846	0
0	578777	847	-nan
0	578777	848	-nan
0	578777	849	-nan
0	578777	850	-nan
0	578777	851	-nan
0	578777	852	-nan
0	578777	853	-nan
0	578777	854	-nan
0	578777	855	0
0	578777	856	-nan
0	578777	857	-nan
0	578777	858	-nan
0	578777	859	-nan
0	578777	860	0
0	578777	861	-nan
0	578777	862	-nan
0	578777	863	-nan
0	578777	864	0
0	578777	865	-nan
0	578777	866	-nan
0	578777	867	-nan
0	578777	868	-nan
0	578777	869	-nan
0	578777	870	0
0	578777	871	-nan
0	578777	872	-nan
0	578777	873	-nan
0	578777	874	-nan
0	578777	875	-nan
0	578777	876	-nan
0	578777	877	0
0	578777	878	-nan
0	578777	879	-nan
0	578777	880	-nan
0	578777	881	0
0	578777	882	-nan
0	578777	883	0
0	578777	884	0
0	578777	885	-nan
0	578777	886	-nan
0	578777	887	0
0	578777	888	0
0	578777	889	-nan
0	578777	890	-nan
0	578777	891	-nan
0	578777	892	-nan
0	578777	893	0
0	578777	894	-nan
0	578777	895	0
0	578777	896	0
0	578777	897	-nan
0	578777	898	-nan
0	578777	899	-nan
0	578777	900	-nan
0	578777	901	-nan
0	578777	902	-nan
0	578777	903	-nan
0	578777	904	0
0	578777	905	-nan
0	578777	906	0
0	578777	907	-nan
0	578777	908	-nan
0	578777	909	-nan
0	578777	910	-nan
0	578777	911	0
0	578777	912	-nan
0	578777	913	-nan
0	578777	914	0
0	578777	915	0
0	578777	916	-nan
0	578777	917	-nan
0	578777	918	0
0	578777	919	-nan
0	578777	920	0
0	578777	921	-nan
0	578777	922	-nan
0	578777	923	-nan
0	578777	924	0
0	578777	925	-nan
0	578777	926	0
0	578777	927	-nan
0	578777	928	-nan
0	578777	929	0
0	578777	930	-nan
0	578777	931	-nan
0	578777	932	0
0	578777	933	0
0	578777	934	0
0	578777	935	-nan
0	578777	936	0
0	578777	937	-nan
0	578777	938	-nan
0	578777	939	0
0	578777	940	0
0	578777	941	0
0	578777	942	-nan
0	578777	943	-nan
0	578777	944	-nan
0	578777	945	-nan
0	578777	946	-nan
0	578777	947	-nan
0	578777	948	0
0	578777	949	0
0	578777	950	-nan
0	578777	951	-nan
0	578777	952	-nan
0	578777	953	-nan
0	578777	954	-nan
0	578777	955	-nan
0	578777	956	0
0	578777	957	-nan
0	578777	958	-nan
0	578777	959	0
0	578777	960	-nan
0	578777	961	0
0	578777	962	-nan
0	578777	963	-nan
0	578777	964	0
0	578777	965	0
0	578777	966	-nan
0	578777	967	-nan
0	578777	968	-nan
0	578777	969	0
0	578777	970	-nan
0	578777	971	-nan
0	578777	972	0
0	578777	973	-nan
0	578777	974	-nan
0	578777	975	-nan
0	578777	976	-nan
0	578777	977	-nan
0	578777	978	-nan
0	578777	979	0
0	578777	980	-nan
0	578777	981	-nan
0	578777	982	0
0	578777	983	0
0	578777	984	-nan
0	578777	985	-nan
0	578777	986	-nan
0	578777	987	-nan
0	578777	988	0
0	578777	989	-nan
0	578777	990	0
0	578777	991	-nan
0	578777	992	-nan
0	578777	993	-nan
0	578777	994	0
0	578777	995	-nan
0	578777	996	-nan
0	578777	997	-nan
0	578777	998	-nan
0	578777	999	-nan
0	578777	1000	0
0	578777	1001	-nan
0	578777	1002	-nan
0	578777	1003	-nan
0	578777	1004	0
0	578777	1005	0
0	578777	1006	0
0	578777	1007	-nan
0	578777	1008	-nan
0	578777	1009	1
0	578777	1010	0
0	578777	1011	-nan
0	578777	1012	-nan
0	578777	1013	-nan
0	578777	1014	-nan
0	578777	1015	-nan
0	578777	1016	-nan
0	578777	1017	-nan
0	578777	1018	0
0	578777	1019	-nan
0	578777	1020	-nan
0	578777	1021	-nan
0	578777	1022	-nan
0	578777	1023	0
0	578777	1024	-nan
0	578777	1025	-nan
0	578777	1026	-nan
0	578777	1027	-nan
0	578777	1028	-nan
0	578777	1029	-nan
0	578777	1030	-nan
0	578777	1031	0
0	578777	1032	-nan
0	578777	1033	-nan
0	578777	1034	-nan
0	578777	1035	0
0	578777	1036	-nan
0	578777	1037	-nan
0	578777	1038	-nan
0	578777	1039	-nan
0	578777	1040	-nan
0	578777	1041	0
0	578777	1042	-nan
0	578777	1043	0
0	578777	1044	-nan
0	578777	1045	-nan
0	578777	1046	0
0	578777	1047	-nan
0	578777	1048	-nan
0	578777	1049	-nan
0	578777	1050	-nan
0	578777	1051	-nan
0	578777	1052	-nan
0	578777	1053	-nan
0	578777	1054	0
0	578777	1055	0
0	578777	1056	0
0	578777	1057	0
0	578777	1058	0
0	578777	1059	-nan
0	578777	1060	-nan
0	578777	1061	-nan
0	578777	1062	-nan
0	578777	1063	0
0	578777	1064	-nan
0	578777	1065	-nan
0	578777	1066	0.5
0	578777	1067	-nan
0	578777	1068	-nan
0	578777	1069	-nan
0	578777	1070	-nan
0	578777	1071	0
0	578777	1072	-nan
0	578777	1073	-nan
0	578777	1074	-nan
0	578777	1075	-nan
0	578777	1076	-nan
0	578777	1077	-nan
0	578777	1078	-nan
0	578777	1079	0
0	578777	1080	-nan
0	578777	1081	-nan
0	578777	1082	-nan
0	578777	1083	-nan
0	578777	1084	0
0	578777	1085	0
0	578777	1086	-nan
0	578777	1087	-nan
0	578777	1088	-nan
0	578777	1089	-nan
0	578777	1090	0
0	578777	1091	-nan
0	578777	1092	-nan
0	578777	1093	-nan
0	578777	1094	-nan
0	578777	1095	-nan
0	578777	1096	-nan
0	578777	1097	-nan
0	578777	1098	-nan
0	578777	1099	0
0	578777	1100	-nan
0	578777	1101	-nan
0	578777	1102	-nan
0	578777	1103	-nan
0	578777	1104	0
0	578777	1105	0
0	578777	1106	-nan
0	578777	1107	-nan
0	578777	1108	-nan
0	578777	1109	-nan
0	578777	1110	-nan
0	578777	1111	-nan
0	578777	1112	-nan
0	578777	1113	-nan
0	578777	1114	-nan
0	578777	1115	-nan
0	578777	1116	0
0	578777	1117	-nan
0	578777	1118	0
0	578777	1119	0
0	578777	1120	-nan
0	578777	1121	-nan
0	578777	1122	0
0	578777	1123	0
0	578777	1124	-nan
0	578777	1125	-nan
0	578777	1126	0
0	578777	1127	-nan
0	578777	1128	-nan
0	578777	1129	-nan
0	578777	1130	0
0	578777	1131	-nan
0	578777	1132	-nan
0	578777	1133	-nan
0	578777	1134	-nan
0	578777	1135	-nan
0	578777	1136	-nan
0	578777	1137	-nan
0	578777	1138	-nan
0	578777	1139	0
0	578777	1140	-nan
0	578777	1141	-nan
0	578777	1142	-nan
0	578777	1143	1
0	578777	1144	-nan
0	578777	1145	-nan
0	578777	1146	-nan
0	578777	1147	-nan
0	578777	1148	-nan
0	578777	1149	-nan
0	578777	1150	0
0	578777	1151	0
0	578777	1152	-nan
0	578777	1153	-nan
0	578777	1154	-nan
0	578777	1155	-nan
0	578777	1156	-nan
0	578777	1157	-nan
0	578777	1158	-nan
0	578777	1159	-nan
0	578777	1160	-nan
0	578777	1161	-nan
0	578777	1162	0
0	578777	1163	-nan
0	578777	1164	-nan
0	578777	1165	-nan
0	578777	1166	-nan
0	578777	1167	-nan
0	578777	1168	-nan
0	578777	1169	0
0	578777	1170	-nan
0	578777	1171	-nan
0	578777	1172	0
0	578777	1173	-nan
0	578777	1174	-nan
0	578777	1175	-nan
0	578777	1176	-nan
0	578777	1177	-nan
0	578777	1178	-nan
vector 1  abilene_network.node[1].content_store  hit_node[1]  ETV
1	578777	1	0.97560975609756
1	578777	2	1
1	578777	3	0.8695652173913
1	578777	4	0.4375
1	578777	5	1
1	578777	6	0.88888888888889
1	578777	7	0.63636363636364
1	578777	8	0.72727272727273
1	578777	9	0.92307692307692
1	578777	10	0.64285714285714
1	578777	11	0.22222222222222
1	578777	12	0.66666666666667
1	578777	13	0
1	578777	14	0.65
1	578777	15	0.22222222222222
1	578777	16	0.28571428571429
1	578777	17	0
1	578777	18	0.36363636363636
1	578777	19	0.5625
1	578777	20	0.375
1	578777	21	1
1	578777	22	0
1	578777	23	0
1	578777	24	0.46666666666667
1	578777	25	0.11111111111111
1	578777	26	0.85714285714286
1	578777	27	0
1	578777	28	0.61538461538462
1	578777	29	0
1	578777	30	0
1	578777	31	0
1	578777	32	0.75
1	578777	33	0.125
1	578777	34	0.083333333333333
1	578777	35	0
1	578777	36	0
1	578777	37	0
1	578777	38	0.375
1	578777	39	0
1	578777	40	0
1	578777	41	0
1	578777	42	0
1	578777	43	0
1	578777	44	0.25
1	578777	45	0
1	578777	46	0
1	578777	47	0
1	578777	48	0.57142857142857
1	578777	49	0
1	578777	50	0.42857142857143
1	578777	51	0.2
1	578777	52	0
1	578777	53	0.28571428571429
1	578777	54	0
1	578777	55	0.2
1	578777	56	0
1	578777	57	0
1	578777	58	0
1	578777	59	0.625
1	578777	60	0
1	578777	61	0
1	578777	62	0
1	578777	63	0.7
1	578777	64	0
1	578777	65	0.28571428571429
1	578777	66	0
1	578777	67	0
1	578777	68	0
1	578777	69	0
1	578777	70	0
1	578777	71	0.2
1	578777	72	0
1	578777	73	0
1	578777	74	0.16666666666667
1	578777	75	0
1	578777	76	0
1	578777	77	0.625
1	578777	78	0
1	578777	79	0
1	578777	80	0.25
1	578777	81	0.44444444444444
1	578777	82	0
1	578777	83	-nan
1	578777	84	0
1	578777	85	0
1	578777	86	0
1	578777	87	0.5
1	578777	88	0.28571428571429
1	578777	89	0.16666666666667
1	578777	90	0
1	578777	91	0
1	578777	92	0
1	578777	93	0
1	578777	94	0
1	578777	95	0.57142857142857
1	578777	96	0
1	578777	97	0
1	578777	98	0
1	578777	99	0.16666666666667
1	578777	100	0
1	578777	101	0.16666666666667
1	578777	102	0
1	578777	103	0
1	578777	104	0
1	578777	105	0.16666666666667
1	578777	106	0
1	578777	107	0
1	578777	108	0
1	578777	109	0
1	578777	110	0
1	578777	111	0
1	578777	112	0
1	578777	113	0
1	578777	114	-nan
1	578777	115	0
1	578777	116	0
1	578777	117	0
1	578777	118	0
1	578777	119	0
1	578777	120	0
1	578777	121	0
1	578777	122	0
1	578777	123	0.5
1	578777	124	0
1	578777	125	0.75
1	578777	126	0.33333333333333
1	578777	127	0
1	578777	128	0
1	578777	129	0
1	578777	130	0.14285714285714
1	578777	131	0
1	578777	132	0
1	578777	133	0
1	578777	134	0.25
1	578777	135	0.33333333333333
1	578777	136	0
1	578777	137	0.2
1	578777	138	0
1	578777	139	0
1	578777	140	0
1	578777	141	0
1	578777	142	0
1	578777	143	0
1	578777	144	0
1	578777	145	0
1	578777	146	0
1	578777	147	0
1	578777	148	0
1	578777	149	0
1	578777	150	-nan
1	578777	151	0
1	578777	152	0
1	578777	153	0
1	578777	154	-nan
1	578777	155	0
1	578777	156	0.33333333333333
1	578777	157	0
1	578777	158	0
1	578777	159	0
1	578777	160	0.33333333333333
1	578777	161	0.66666666666667
1	578777	162	0.5
1	578777	163	0
1	578777	164	0
1	578777	165	0
1	578777	166	0.2
1	578777	167	0
1	578777	168	0
1	578777	169	0
1	578777	170	0
1	578777	171	0
1	578777	172	0
1	578777	173	0
1	578777	174	0
1	578777	175	0
1	578777	176	0
1	578777	177	0
1	578777	178	0
1	578777	179	0
1	578777	180	0
1	578777	181	0
1	578777	182	0
1	578777	183	0
1	578777	184	0
1	578777	185	0
1	578777	186	0
1	578777	187	-nan
1	578777	188	0
1	578777	189	0
1	578777	190	0
1	578777	191	0.5
1	578777	192	0
1	578777	193	0
1	578777	194	0
1	578777	195	-nan
1	578777	196	0
1	578777	197	0
1	578777	198	0
1	578777	199	0
1	578777	200	0
1	578777	201	0
1	578777	202	0
1	578777	203	0
1	578777	204	0
1	578777	205	0
1	578777	206	0
1	578777	207	-nan
1	578777	208	0
1	578777	209	0
1	578777	210	0
1	578777	211	0
1	578777	212	0
1	578777	213	0
1	578777	214	0
1	578777	215	0
1	578777	216	0.5
1	578777	217	0
1	578777	218	0
1	578777	219	0
1	578777	220	0
1	578777	221	0
1	578777	222	0
1	578777	223	-nan
1	578777	224	0
1	578777	225	0
1	578777	226	0
1	578777	227	0.25
1	578777	228	0
1	578777	229	0
1	578777	230	0.375
1	578777	231	0
1	578777	232	0
1	578777	233	0
1	578777	234	0
1	578777	235	0
1	578777	236	-nan
1	578777	237	0
1	578777	238	0
1	578777	239	0
1	578777	240	0
1	578777	241	0
1	578777	242	0
1	578777	243	0
1	578777	244	0
1	578777	245	0.33333333333333
1	578777	246	0
1	578777	247	0.33333333333333
1	578777	248	0
1	578777	249	0
1	578777	250	0
1	578777	251	0
1	578777	252	0
1	578777	253	0
1	578777	254	-nan
1	578777	255	0
1	578777	256	0
1	578777	257	0
1	578777	258	0
1	578777	259	0.33333333333333
1	578777	260	0
1	578777	261	0
1	578777	262	-nan
1	578777	263	0
1	578777	264	0
1	578777	265	0
1	578777	266	0
1	578777	267	0
1	578777	268	0
1	578777	269	0
1	578777	270	0
1	578777	271	0
1	578777	272	0
1	578777	273	-nan
1	578777	274	0
1	578777	275	0
1	578777	276	0
1	578777	277	0
1	578777	278	-nan
1	578777	279	0
1	578777	280	0
1	578777	281	0
1	578777	282	0
1	578777	283	0.2
1	578777	284	0
1	578777	285	0
1	578777	286	0
1	578777	287	0
1	578777	288	0
1	578777	289	0
1	578777	290	0
1	578777	291	0
1	578777	292	0
1	578777	293	-nan
1	578777	294	-nan
1	578777	295	0
1	578777	296	0
1	578777	297	0
1	578777	298	0
1	578777	299	0
1	578777	300	0
1	578777	301	0
1	578777	302	0
1	578777	303	0
1	578777	304	0
1	578777	305	-nan
1	578777	306	0.16666666666667
1	578777	307	0
1	578777	308	-nan
1	578777	309	0
1	578777	310	0
1	578777	311	0
1	578777	312	0
1	578777	313	0
1	578777	314	-nan
1	578777	315	0
1	578777	316	0
1	578777	317	0
1	578777	318	0
1	578777	319	0
1	578777	320	0
1	578777	321	0
1	578777	322	0
1	578777	323	0
1	578777	324	0
1	578777	325	-nan
1	578777	326	0
1	578777	327	-nan
1	578777	328	0
1	578777	329	0
1	578777	330	0
1	578777	331	0.4
1	578777	332	0
1	578777	333	0
1	578777	334	0
1	578777	335	0
1	578777	336	0
1	578777	337	-nan
1	578777	338	0
1	578777	339	0
1	578777	340	0
1	578777	341	0
1	578777	342	0.5
1	578777	343	0
1	578777	344	0
1	578777	345	-nan
1	578777	346	0
1	578777	347	0
1	578777	348	-nan
1	578777	349	0
1	578777	350	0
1	578777	351	0
1	578777	352	0
1	578777	353	-nan
1	578777	354	-nan
1	578777	355	0
1	578777	356	0
1	578777	357	0
1	578777	358	0
1	578777	359	-nan
1	578777	360	-nan
1	578777	361	0
1	578777	362	0
1	578777	363	0
1	578777	364	0
1	578777	365	0
1	578777	366	0
1	578777	367	0
1	578777	368	-nan
1	578777	369	0
1	578777	370	0
1	578777	371	0
1	578777	372	-nan
1	578777	373	0
1	578777	374	0
1	578777	375	-nan
1	578777	376	0
1	578777	377	0
1	578777	378	0
1	578777	379	0
1	578777	380	0
1	578777	381	0
1	578777	382	0
1	578777	383	0
1	578777	384	0
1	578777	385	0
1	578777	386	0
1	578777	387	0
1	578777	388	0
1	578777	389	0
1	578777	390	-nan
1	578777	391	-nan
1	578777	392	0
1	578777	393	0
1	578777	394	0
1	578777	395	-nan
1	578777	396	0
1	578777	397	0
1	578777	398	0
1	578777	399	0
1	578777	400	0
1	578777	401	0
1	578777	402	0
1	578777	403	0
1	578777	404	0
1	578777	405	0
1	578777	406	0
1	578777	407	0
1	578777	408	-nan
1	578777	409	0
1	578777	410	0
1	578777	411	0
1	578777	412	0
1	578777	413	-nan
1	578777	414	0
1	578777	415	0
1	578777	416	-nan
1	578777	417	0
1	578777	418	0
1	578777	419	-nan
1	578777	420	0
1	578777	421	0
1	578777	422	0
1	578777	423	0.66666666666667
1	578777	424	-nan
1	578777	425	0
1	578777	426	0
1	578777	427	0
1	578777	428	0
1	578777	429	0
1	578777	430	0
1	578777	431	0.33333333333333
1	578777	432	-nan
1	578777	433	0
1	578777	434	-nan
1	578777	435	0
1	578777	436	0
1	578777	437	0
1	578777	438	0
1	578777	439	-nan
1	578777	440	-nan
1	578777	441	0.66666666666667
1	578777	442	0
1	578777	443	-nan
1	578777	444	0
1	578777	445	0
1	578777	446	0
1	578777	447	0
1	578777	448	-nan
1	578777	449	0
1	578777	450	0
1	578777	451	0
1	578777	452	0
1	578777	453	0
1	578777	454	0
1	578777	455	0
1	578777	456	0
1	578777	457	0
1	578777	458	0
1	578777	459	0
1	578777	460	0.33333333333333
1	578777	461	0
1	578777	462	0
1	578777	463	0
1	578777	464	-nan
1	578777	465	0
1	578777	466	0
1	578777	467	0
1	578777	468	0
1	578777	469	0
1	578777	470	0
1	578777	471	0
1	578777	472	0
1	578777	473	0
1	578777	474	-nan
1	578777	475	0.5
1	578777	476	0.33333333333333
1	578777	477	0
1	578777	478	0
1	578777	479	0
1	578777	480	0
1	578777	481	0
1	578777	482	0
1	578777	483	0
1	578777	484	-nan
1	578777	485	0
1	578777	486	-nan
1	578777	487	0
1	578777	488	0
1	578777	489	0
1	578777	490	-nan
1	578777	491	0
1	578777	492	0
1	578777	493	-nan
1	578777	494	0
1	578777	495	-nan
1	578777	496	0
1	578777	497	0
1	578777	498	0
1	578777	499	0
1	578777	500	0
1	578777	501	-nan
1	578777	502	0
1	578777	503	0
1	578777	504	0
1	578777	505	0
1	578777	506	0
1	578777	507	-nan
1	578777	508	0
1	578777	509	0
1	578777	510	0
1	578777	511	0
1	578777	512	0
1	578777	513	0
1	578777	514	0
1	578777	515	0
1	578777	516	0
1	578777	517	0
1	578777	518	-nan
1	578777	519	0
1	578777	520	0
1	578777	521	0
1	578777	522	0
1	578777	523	0
1	578777	524	0
1	578777	525	0
1	578777	526	0
1	578777	527	0
1	578777	528	0
1	578777	529	0
1	578777	530	-nan
1	578777	531	0
1	578777	532	0
1	578777	533	0.5
1	578777	534	0
1	578777	535	-nan
1	578777	536	0
1	578777	537	0
1	578777	538	0.5
1	578777	539	0
1	578777	540	0
1	578777	541	-nan
1	578777	542	0
1	578777	543	0
1	578777	544	-nan
1	578777	545	-nan
1	578777	546	0
1	578777	547	-nan
1	578777	548	-nan
1	578777	549	0
1	578777	550	0
1	578777	551	-nan
1	578777	552	0
1	578777	553	0
1	578777	554	0
1	578777	555	0
1	578777	556	0
1	578777	557	0
1	578777	558	0
1	578777	559	-nan
1	578777	560	-nan
1	578777	561	0.5