version 2
run General-5-20150311-18:59:35-28958
attr D lcd
attr F spr
attr R lru
attr a 0.6
attr configname General
attr datetime 20150311-18:59:35
attr experiment General
attr inifile omnetpp.ini
attr iterationvars "$net=abilene, $rep=0, $a=0.6, $F=spr, $ttl=1000, $D=lcd, $R=lru"
attr iterationvars2 "$net=abilene, $rep=0, $a=0.6, $F=spr, $ttl=1000, $D=lcd, $R=lru, $repetition=0"
attr measurement "$net=abilene, $rep=0, $a=0.6, $F=spr, $ttl=1000, $D=lcd, $R=lru"
attr net abilene
attr network networks.${net=abilene}_network
attr processid 28958
attr rep 0
attr repetition 0
attr replication #0
attr resultdir results
attr runnumber 5
attr seedset 0
attr ttl 1000

vector 0  abilene_network.node[0].content_store  hit_node[0]  ETV
0	1643035	1	1
0	1643035	2	1
0	1643035	3	1
0	1643035	4	1
0	1643035	5	1
0	1643035	6	1
0	1643035	7	1
0	1643035	8	1
0	1643035	9	1
0	1643035	10	1
0	1643035	11	1
0	1643035	12	1
0	1643035	13	1
0	1643035	14	1
0	1643035	15	1
0	1643035	16	1
0	1643035	17	-nan
0	1643035	18	1
0	1643035	19	1
0	1643035	20	1
0	1643035	21	0.66666666666667
0	1643035	22	1
0	1643035	23	1
0	1643035	24	1
0	1643035	25	1
0	1643035	26	1
0	1643035	27	1
0	1643035	28	1
0	1643035	29	1
0	1643035	30	1
0	1643035	31	1
0	1643035	32	1
0	1643035	33	1
0	1643035	34	0
0	1643035	35	1
0	1643035	36	1
0	1643035	37	-nan
0	1643035	38	1
0	1643035	39	-nan
0	1643035	40	1
0	1643035	41	1
0	1643035	42	0
0	1643035	43	1
0	1643035	44	-nan
0	1643035	45	-nan
0	1643035	46	-nan
0	1643035	47	1
0	1643035	48	0.5
0	1643035	49	-nan
0	1643035	50	1
0	1643035	51	0
0	1643035	52	1
0	1643035	53	1
0	1643035	54	1
0	1643035	55	0
0	1643035	56	1
0	1643035	57	0
0	1643035	58	1
0	1643035	59	0.8
0	1643035	60	0
0	1643035	61	1
0	1643035	62	1
0	1643035	63	1
0	1643035	64	0
0	1643035	65	0
0	1643035	66	-nan
0	1643035	67	-nan
0	1643035	68	1
0	1643035	69	1
0	1643035	70	0
0	1643035	71	0.5
0	1643035	72	0
0	1643035	73	0.4
0	1643035	74	0.5
0	1643035	75	1
0	1643035	76	0
0	1643035	77	-nan
0	1643035	78	1
0	1643035	79	0
0	1643035	80	1
0	1643035	81	1
0	1643035	82	-nan
0	1643035	83	1
0	1643035	84	0.5
0	1643035	85	-nan
0	1643035	86	0
0	1643035	87	-nan
0	1643035	88	-nan
0	1643035	89	-nan
0	1643035	90	0
0	1643035	91	0
0	1643035	92	1
0	1643035	93	1
0	1643035	94	-nan
0	1643035	95	-nan
0	1643035	96	1
0	1643035	97	0
0	1643035	98	-nan
0	1643035	99	0
0	1643035	100	0
0	1643035	101	-nan
0	1643035	102	0
0	1643035	103	0
0	1643035	104	0
0	1643035	105	-nan
0	1643035	106	0
0	1643035	107	0
0	1643035	108	-nan
0	1643035	109	0
0	1643035	110	0
0	1643035	111	0
0	1643035	112	0.8
0	1643035	113	-nan
0	1643035	114	0
0	1643035	115	-nan
0	1643035	116	0
0	1643035	117	0.5
0	1643035	118	0
0	1643035	119	0
0	1643035	120	0
0	1643035	121	0
0	1643035	122	0
0	1643035	123	0
0	1643035	124	1
0	1643035	125	-nan
0	1643035	126	0.5
0	1643035	127	0
0	1643035	128	0
0	1643035	129	-nan
0	1643035	130	0
0	1643035	131	0
0	1643035	132	0
0	1643035	133	0
0	1643035	134	-nan
0	1643035	135	-nan
0	1643035	136	-nan
0	1643035	137	1
0	1643035	138	0
0	1643035	139	1
0	1643035	140	-nan
0	1643035	141	0
0	1643035	142	0
0	1643035	143	1
0	1643035	144	0
0	1643035	145	0
0	1643035	146	0
0	1643035	147	-nan
0	1643035	148	-nan
0	1643035	149	-nan
0	1643035	150	-nan
0	1643035	151	0
0	1643035	152	1
0	1643035	153	-nan
0	1643035	154	1
0	1643035	155	0
0	1643035	156	-nan
0	1643035	157	0
0	1643035	158	0
0	1643035	159	-nan
0	1643035	160	0
0	1643035	161	0
0	1643035	162	0
0	1643035	163	-nan
0	1643035	164	0
0	1643035	165	0
0	1643035	166	1
0	1643035	167	-nan
0	1643035	168	-nan
0	1643035	169	-nan
0	1643035	170	0.5
0	1643035	171	0
0	1643035	172	-nan
0	1643035	173	0
0	1643035	174	-nan
0	1643035	175	0
0	1643035	176	-nan
0	1643035	177	-nan
0	1643035	178	-nan
0	1643035	179	-nan
0	1643035	180	0
0	1643035	181	-nan
0	1643035	182	-nan
0	1643035	183	-nan
0	1643035	184	0
0	1643035	185	1
0	1643035	186	0.5
0	1643035	187	0
0	1643035	188	-nan
0	1643035	189	-nan
0	1643035	190	-nan
0	1643035	191	-nan
0	1643035	192	0
0	1643035	193	1
0	1643035	194	0
0	1643035	195	-nan
0	1643035	196	0.66666666666667
0	1643035	197	0
0	1643035	198	0
0	1643035	199	0
0	1643035	200	0
0	1643035	201	0
0	1643035	202	0.5
0	1643035	203	0
0	1643035	204	0
0	1643035	205	0
0	1643035	206	-nan
0	1643035	207	0
0	1643035	208	-nan
0	1643035	209	1
0	1643035	210	0
0	1643035	211	1
0	1643035	212	-nan
0	1643035	213	0
0	1643035	214	-nan
0	1643035	215	-nan
0	1643035	216	-nan
0	1643035	217	0
0	1643035	218	-nan
0	1643035	219	0
0	1643035	220	0
0	1643035	221	-nan
0	1643035	222	0
0	1643035	223	-nan
0	1643035	224	-nan
0	1643035	225	-nan
0	1643035	226	0
0	1643035	227	-nan
0	1643035	228	0
0	1643035	229	0
0	1643035	230	0
0	1643035	231	-nan
0	1643035	232	-nan
0	1643035	233	-nan
0	1643035	234	0
0	1643035	235	-nan
0	1643035	236	0
0	1643035	237	-nan
0	1643035	238	-nan
0	1643035	239	0
0	1643035	240	-nan
0	1643035	241	-nan
0	1643035	242	1
0	1643035	243	-nan
0	1643035	244	0
0	1643035	245	0
0	1643035	246	0
0	1643035	247	0
0	1643035	248	0
0	1643035	249	-nan
0	1643035	250	-nan
0	1643035	251	-nan
0	1643035	252	-nan
0	1643035	253	0
0	1643035	254	1
0	1643035	255	0
0	1643035	256	0
0	1643035	257	-nan
0	1643035	258	-nan
0	1643035	259	0
0	1643035	260	-nan
0	1643035	261	0
0	1643035	262	0
0	1643035	263	-nan
0	1643035	264	-nan
0	1643035	265	-nan
0	1643035	266	-nan
0	1643035	267	0
0	1643035	268	0
0	1643035	269	0
0	1643035	270	0
0	1643035	271	0
0	1643035	272	-nan
0	1643035	273	-nan
0	1643035	274	-nan
0	1643035	275	-nan
0	1643035	276	-nan
0	1643035	277	0
0	1643035	278	0
0	1643035	279	-nan
0	1643035	280	0
0	1643035	281	0
0	1643035	282	-nan
0	1643035	283	0
0	1643035	284	0
0	1643035	285	-nan
0	1643035	286	-nan
0	1643035	287	-nan
0	1643035	288	-nan
0	1643035	289	-nan
0	1643035	290	0
0	1643035	291	-nan
0	1643035	292	-nan
0	1643035	293	-nan
0	1643035	294	0
0	1643035	295	0
0	1643035	296	0
0	1643035	297	0
0	1643035	298	-nan
0	1643035	299	-nan
0	1643035	300	-nan
0	1643035	301	0
0	1643035	302	-nan
0	1643035	303	-nan
0	1643035	304	0
0	1643035	305	-nan
0	1643035	306	-nan
0	1643035	307	-nan
0	1643035	308	0
0	1643035	309	0
0	1643035	310	0
0	1643035	311	-nan
0	1643035	312	-nan
0	1643035	313	-nan
0	1643035	314	-nan
0	1643035	315	0
0	1643035	316	-nan
0	1643035	317	-nan
0	1643035	318	-nan
0	1643035	319	0
0	1643035	320	-nan
0	1643035	321	-nan
0	1643035	322	0
0	1643035	323	-nan
0	1643035	324	-nan
0	1643035	325	0
0	1643035	326	-nan
0	1643035	327	-nan
0	1643035	328	0
0	1643035	329	0
0	1643035	330	-nan
0	1643035	331	0
0	1643035	332	0
0	1643035	333	0
0	1643035	334	0
0	1643035	335	0
0	1643035	336	-nan
0	1643035	337	-nan
0	1643035	338	-nan
0	1643035	339	-nan
0	1643035	340	-nan
0	1643035	341	0
0	1643035	342	-nan
0	1643035	343	0
0	1643035	344	-nan
0	1643035	345	0
0	1643035	346	-nan
0	1643035	347	-nan
0	1643035	348	0
0	1643035	349	-nan
0	1643035	350	-nan
0	1643035	351	-nan
0	1643035	352	-nan
0	1643035	353	0
0	1643035	354	0
0	1643035	355	-nan
0	1643035	356	0
0	1643035	357	-nan
0	1643035	358	0
0	1643035	359	-nan
0	1643035	360	-nan
0	1643035	361	-nan
0	1643035	362	-nan
0	1643035	363	0
0	1643035	364	0
0	1643035	365	-nan
0	1643035	366	0
0	1643035	367	0
0	1643035	368	-nan
0	1643035	369	-nan
0	1643035	370	0
0	1643035	371	0
0	1643035	372	-nan
0	1643035	373	-nan
0	1643035	374	0
0	1643035	375	0
0	1643035	376	-nan
0	1643035	377	0
0	1643035	378	-nan
0	1643035	379	-nan
0	1643035	380	-nan
0	1643035	381	-nan
0	1643035	382	-nan
0	1643035	383	0
0	1643035	384	-nan
0	1643035	385	-nan
0	1643035	386	0
0	1643035	387	-nan
0	1643035	388	-nan
0	1643035	389	-nan
0	1643035	390	0
0	1643035	391	-nan
0	1643035	392	0
0	1643035	393	-nan
0	1643035	394	-nan
0	1643035	395	-nan
0	1643035	396	-nan
0	1643035	397	0
0	1643035	398	0
0	1643035	399	0
0	1643035	400	0
0	1643035	401	0
0	1643035	402	-nan
0	1643035	403	-nan
0	1643035	404	-nan
0	1643035	405	-nan
0	1643035	406	0
0	1643035	407	0
0	1643035	408	-nan
0	1643035	409	-nan
0	1643035	410	-nan
0	1643035	411	-nan
0	1643035	412	-nan
0	1643035	413	-nan
0	1643035	414	0
0	1643035	415	0
0	1643035	416	0
0	1643035	417	-nan
0	1643035	418	0
0	1643035	419	0
0	1643035	420	0
0	1643035	421	0
0	1643035	422	0
0	1643035	423	0
0	1643035	424	0
0	1643035	425	-nan
0	1643035	426	-nan
0	1643035	427	-nan
0	1643035	428	0
0	1643035	429	-nan
0	1643035	430	0
0	1643035	431	0
0	1643035	432	-nan
0	1643035	433	-nan
0	1643035	434	-nan
0	1643035	435	0
0	1643035	436	0
0	1643035	437	-nan
0	1643035	438	-nan
0	1643035	439	-nan
0	1643035	440	-nan
0	1643035	441	-nan
0	1643035	442	-nan
0	1643035	443	-nan
0	1643035	444	0
0	1643035	445	0
0	1643035	446	0
0	1643035	447	-nan
0	1643035	448	-nan
0	1643035	449	0
0	1643035	450	0
0	1643035	451	-nan
0	1643035	452	-nan
0	1643035	453	-nan
0	1643035	454	-nan
0	1643035	455	-nan
0	1643035	456	-nan
0	1643035	457	-nan
0	1643035	458	-nan
0	1643035	459	0
0	1643035	460	-nan
0	1643035	461	-nan
0	1643035	462	-nan
0	1643035	463	-nan
0	1643035	464	-nan
0	1643035	465	0
0	1643035	466	-nan
0	1643035	467	0
0	1643035	468	-nan
0	1643035	469	-nan
0	1643035	470	-nan
0	1643035	471	-nan
0	1643035	472	0
0	1643035	473	-nan
0	1643035	474	-nan
0	1643035	475	-nan
0	1643035	476	-nan
0	1643035	477	0
0	1643035	478	-nan
0	1643035	479	0
0	1643035	480	-nan
0	1643035	481	-nan
0	1643035	482	-nan
0	1643035	483	0
0	1643035	484	0
0	1643035	485	-nan
0	1643035	486	0
0	1643035	487	0
0	1643035	488	-nan
0	1643035	489	-nan
0	1643035	490	-nan
0	1643035	491	-nan
0	1643035	492	-nan
0	1643035	493	-nan
0	1643035	494	-nan
0	1643035	495	-nan
0	1643035	496	-nan
0	1643035	497	0
0	1643035	498	0
0	1643035	499	0
0	1643035	500	-nan
0	1643035	501	-nan
0	1643035	502	0
0	1643035	503	-nan
0	1643035	504	0
0	1643035	505	0
0	1643035	506	-nan
0	1643035	507	-nan
0	1643035	508	0
0	1643035	509	-nan
0	1643035	510	-nan
0	1643035	511	0
0	1643035	512	0
0	1643035	513	-nan
0	1643035	514	0
0	1643035	515	-nan
0	1643035	516	-nan
0	1643035	517	-nan
0	1643035	518	-nan
0	1643035	519	-nan
0	1643035	520	-nan
0	1643035	521	-nan
0	1643035	522	0
0	1643035	523	-nan
0	1643035	524	0
0	1643035	525	-nan
0	1643035	526	-nan
0	1643035	527	-nan
0	1643035	528	0
0	1643035	529	-nan
0	1643035	530	0
0	1643035	531	-nan
0	1643035	532	-nan
0	1643035	533	0
0	1643035	534	-nan
0	1643035	535	-nan
0	1643035	536	-nan
0	1643035	537	-nan
0	1643035	538	0
0	1643035	539	-nan
0	1643035	540	-nan
0	1643035	541	-nan
0	1643035	542	-nan
0	1643035	543	0
0	1643035	544	0
0	1643035	545	-nan
0	1643035	546	-nan
0	1643035	547	-nan
0	1643035	548	0
0	1643035	549	-nan
0	1643035	550	-nan
0	1643035	551	-nan
0	1643035	552	0
0	1643035	553	-nan
0	1643035	554	-nan
0	1643035	555	-nan
0	1643035	556	0
0	1643035	557	-nan
0	1643035	558	-nan
0	1643035	559	-nan
0	1643035	560	-nan
0	1643035	561	-nan
0	1643035	562	0
0	1643035	563	-nan
0	1643035	564	0
0	1643035	565	-nan
0	1643035	566	-nan
0	1643035	567	-nan
0	1643035	568	-nan
0	1643035	569	0
0	1643035	570	-nan
0	1643035	571	-nan
0	1643035	572	0
0	1643035	573	0
0	1643035	574	0
0	1643035	575	-nan
0	1643035	576	-nan
0	1643035	577	-nan
0	1643035	578	-nan
0	1643035	579	-nan
0	1643035	580	0
0	1643035	581	-nan
0	1643035	582	-nan
0	1643035	583	-nan
0	1643035	584	-nan
0	1643035	585	-nan
0	1643035	586	0
0	1643035	587	-nan
0	1643035	588	-nan
0	1643035	589	-nan
0	1643035	590	0
0	1643035	591	-nan
0	1643035	592	-nan
0	1643035	593	-nan
0	1643035	594	0
0	1643035	595	-nan
0	1643035	596	-nan
0	1643035	597	-nan
0	1643035	598	-nan
0	1643035	599	-nan
0	1643035	600	0
0	1643035	601	-nan
0	1643035	602	0
0	1643035	603	0
0	1643035	604	-nan
0	1643035	605	-nan
0	1643035	606	-nan
0	1643035	607	-nan
0	1643035	608	-nan
0	1643035	609	0
0	1643035	610	-nan
0	1643035	611	-nan
0	1643035	612	-nan
0	1643035	613	0
0	1643035	614	0
0	1643035	615	-nan
0	1643035	616	-nan
0	1643035	617	-nan
0	1643035	618	0
0	1643035	619	-nan
0	1643035	620	0
0	1643035	621	-nan
0	1643035	622	-nan
0	1643035	623	0
0	1643035	624	-nan
0	1643035	625	0
0	1643035	626	-nan
0	1643035	627	0
0	1643035	628	0
0	1643035	629	0
0	1643035	630	-nan
0	1643035	631	-nan
0	1643035	632	-nan
0	1643035	633	0
0	1643035	634	-nan
0	1643035	635	-nan
0	1643035	636	0
0	1643035	637	-nan
0	1643035	638	-nan
0	1643035	639	-nan
0	1643035	640	-nan
0	1643035	641	-nan
0	1643035	642	-nan
0	1643035	643	-nan
0	1643035	644	0
0	1643035	645	-nan
0	1643035	646	0
0	1643035	647	-nan
0	1643035	648	-nan
0	1643035	649	0
0	1643035	650	-nan
0	1643035	651	-nan
0	1643035	652	-nan
0	1643035	653	-nan
0	1643035	654	0
0	1643035	655	0
0	1643035	656	-nan
0	1643035	657	-nan
0	1643035	658	-nan
0	1643035	659	0
0	1643035	660	0
0	1643035	661	-nan
0	1643035	662	0
0	1643035	663	-nan
0	1643035	664	-nan
0	1643035	665	-nan
0	1643035	666	-nan
0	1643035	667	-nan
0	1643035	668	0
0	1643035	669	-nan
0	1643035	670	-nan
0	1643035	671	0
0	1643035	672	0
0	1643035	673	0
0	1643035	674	-nan
0	1643035	675	-nan
0	1643035	676	-nan
0	1643035	677	-nan
0	1643035	678	0
0	1643035	679	0
0	1643035	680	-nan
0	1643035	681	-nan
0	1643035	682	-nan
0	1643035	683	-nan
0	1643035	684	0
0	1643035	685	-nan
0	1643035	686	-nan
0	1643035	687	-nan
0	1643035	688	-nan
0	1643035	689	-nan
0	1643035	690	0
0	1643035	691	-nan
0	1643035	692	-nan
0	1643035	693	-nan
0	1643035	694	-nan
0	1643035	695	-nan
0	1643035	696	-nan
0	1643035	697	0
0	1643035	698	-nan
0	1643035	699	-nan
0	1643035	700	-nan
0	1643035	701	0
0	1643035	702	-nan
0	1643035	703	-nan
0	1643035	704	-nan
0	1643035	705	-nan
0	1643035	706	-nan
0	1643035	707	0
0	1643035	708	-nan
0	1643035	709	0
0	1643035	710	0
0	1643035	711	-nan
0	1643035	712	-nan
0	1643035	713	-nan
0	1643035	714	-nan
0	1643035	715	0
0	1643035	716	-nan
0	1643035	717	0
0	1643035	718	-nan
0	1643035	719	-nan
0	1643035	720	0
0	1643035	721	-nan
0	1643035	722	-nan
0	1643035	723	-nan
0	1643035	724	0
0	1643035	725	0
0	1643035	726	-nan
0	1643035	727	-nan
0	1643035	728	-nan
0	1643035	729	-nan
0	1643035	730	-nan
0	1643035	731	-nan
0	1643035	732	-nan
0	1643035	733	-nan
0	1643035	734	-nan
0	1643035	735	0
0	1643035	736	-nan
0	1643035	737	0
0	1643035	738	-nan
0	1643035	739	-nan
0	1643035	740	-nan
0	1643035	741	0
0	1643035	742	-nan
0	1643035	743	-nan
0	1643035	744	0
0	1643035	745	-nan
0	1643035	746	0
0	1643035	747	-nan
0	1643035	748	-nan
0	1643035	749	0
0	1643035	750	0
0	1643035	751	-nan
0	1643035	752	-nan
0	1643035	753	-nan
0	1643035	754	0
0	1643035	755	-nan
0	1643035	756	0
0	1643035	757	-nan
0	1643035	758	-nan
0	1643035	759	-nan
0	1643035	760	-nan
0	1643035	761	-nan
0	1643035	762	-nan
0	1643035	763	-nan
0	1643035	764	-nan
0	1643035	765	-nan
0	1643035	766	0
0	1643035	767	-nan
0	1643035	768	-nan
0	1643035	769	-nan
0	1643035	770	-nan
0	1643035	771	-nan
0	1643035	772	-nan
0	1643035	773	-nan
0	1643035	774	-nan
0	1643035	775	-nan
0	1643035	776	-nan
0	1643035	777	-nan
0	1643035	778	-nan
0	1643035	779	0
0	1643035	780	-nan
0	1643035	781	-nan
0	1643035	782	-nan
0	1643035	783	-nan
0	1643035	784	-nan
0	1643035	785	-nan
0	1643035	786	0
0	1643035	787	-nan
0	1643035	788	0
0	1643035	789	-nan
0	1643035	790	-nan
0	1643035	791	-nan
0	1643035	792	0
0	1643035	793	-nan
0	1643035	794	-nan
0	1643035	795	-nan
0	1643035	796	-nan
0	1643035	797	-nan
0	1643035	798	0
0	1643035	799	-nan
0	1643035	800	-nan
0	1643035	801	0
0	1643035	802	-nan
0	1643035	803	-nan
0	1643035	804	0
0	1643035	805	-nan
0	1643035	806	-nan
0	1643035	807	0
0	1643035	808	-nan
0	1643035	809	-nan
0	1643035	810	0
0	1643035	811	-nan
0	1643035	812	-nan
0	1643035	813	-nan
0	1643035	814	-nan
0	1643035	815	-nan
0	1643035	816	0
0	1643035	817	-nan
0	1643035	818	-nan
0	1643035	819	-nan
0	1643035	820	0
0	1643035	821	-nan
0	1643035	822	-nan
0	1643035	823	-nan
0	1643035	824	0
0	1643035	825	-nan
0	1643035	826	-nan
0	1643035	827	0
0	1643035	828	0
0	1643035	829	-nan
0	1643035	830	0
0	1643035	831	-nan
0	1643035	832	-nan
0	1643035	833	-nan
0	1643035	834	0
0	1643035	835	0
0	1643035	836	-nan
0	1643035	837	-nan
0	1643035	838	-nan
0	1643035	839	-nan
0	1643035	840	-nan
0	1643035	841	-nan
0	1643035	842	-nan
0	1643035	843	0
0	1643035	844	0
0	1643035	845	0
0	1643035	846	-nan
0	1643035	847	-nan
0	1643035	848	-nan
0	1643035	849	-nan
0	1643035	850	-nan
0	1643035	851	-nan
0	1643035	852	-nan
0	1643035	853	-nan
0	1643035	854	-nan
0	1643035	855	-nan
0	1643035	856	-nan
0	1643035	857	-nan
0	1643035	858	-nan
0	1643035	859	-nan
0	1643035	860	-nan
0	1643035	861	-nan
0	1643035	862	-nan
0	1643035	863	-nan
0	1643035	864	-nan
0	1643035	865	0
0	1643035	866	-nan
0	1643035	867	-nan
0	1643035	868	-nan
0	1643035	869	-nan
0	1643035	870	0
0	1643035	871	0
0	1643035	872	-nan
0	1643035	873	0
0	1643035	874	0
0	1643035	875	-nan
0	1643035	876	0
0	1643035	877	0
0	1643035	878	-nan
0	1643035	879	-nan
0	1643035	880	-nan
0	1643035	881	-nan
0	1643035	882	-nan
0	1643035	883	-nan
0	1643035	884	0
0	1643035	885	-nan
0	1643035	886	0
0	1643035	887	0
0	1643035	888	-nan
0	1643035	889	-nan
0	1643035	890	-nan
0	1643035	891	0
0	1643035	892	-nan
0	1643035	893	0
0	1643035	894	-nan
0	1643035	895	-nan
0	1643035	896	0
0	1643035	897	-nan
0	1643035	898	0
0	1643035	899	-nan
0	1643035	900	-nan
0	1643035	901	-nan
0	1643035	902	-nan
0	1643035	903	-nan
0	1643035	904	-nan
0	1643035	905	-nan
0	1643035	906	0
0	1643035	907	-nan
0	1643035	908	-nan
0	1643035	909	-nan
0	1643035	910	-nan
0	1643035	911	-nan
0	1643035	912	0
0	1643035	913	-nan
0	1643035	914	-nan
0	1643035	915	0
0	1643035	916	0
0	1643035	917	-nan
0	1643035	918	0
0	1643035	919	0
0	1643035	920	0
0	1643035	921	-nan
0	1643035	922	-nan
0	1643035	923	-nan
0	1643035	924	-nan
0	1643035	925	-nan
0	1643035	926	-nan
0	1643035	927	-nan
0	1643035	928	-nan
0	1643035	929	-nan
0	1643035	930	-nan
0	1643035	931	-nan
0	1643035	932	0
0	1643035	933	-nan
0	1643035	934	0
0	1643035	935	-nan
0	1643035	936	-nan
0	1643035	937	-nan
0	1643035	938	-nan
0	1643035	939	-nan
0	1643035	940	-nan
0	1643035	941	-nan
0	1643035	942	-nan
0	1643035	943	-nan
0	1643035	944	-nan
0	1643035	945	0
0	1643035	946	-nan
0	1643035	947	0
0	1643035	948	-nan
0	1643035	949	-nan
0	1643035	950	-nan
0	1643035	951	-nan
0	1643035	952	0
0	1643035	953	0
0	1643035	954	-nan
0	1643035	955	-nan
0	1643035	956	0
0	1643035	957	0
0	1643035	958	-nan
0	1643035	959	-nan
0	1643035	960	0
0	1643035	961	-nan
0	1643035	962	0
0	1643035	963	0
0	1643035	964	-nan
0	1643035	965	-nan
0	1643035	966	-nan
0	1643035	967	0
0	1643035	968	0
0	1643035	969	-nan
0	1643035	970	0
0	1643035	971	-nan
0	1643035	972	-nan
0	1643035	973	-nan
0	1643035	974	-nan
0	1643035	975	-nan
0	1643035	976	-nan
0	1643035	977	-nan
0	1643035	978	-nan
0	1643035	979	0
0	1643035	980	-nan
0	1643035	981	-nan
0	1643035	982	0
0	1643035	983	-nan
0	1643035	984	-nan
0	1643035	985	-nan
0	1643035	986	-nan
0	1643035	987	-nan
0	1643035	988	-nan
0	1643035	989	-nan
0	1643035	990	-nan
0	1643035	991	-nan
0	1643035	992	-nan
0	1643035	993	-nan
0	1643035	994	-nan
0	1643035	995	-nan
0	1643035	996	-nan
0	1643035	997	-nan
0	1643035	998	-nan
0	1643035	999	-nan
0	1643035	1000	-nan
0	1643035	1001	0
0	1643035	1002	-nan
0	1643035	1003	0
0	1643035	1004	-nan
0	1643035	1005	0
0	1643035	1006	-nan
0	1643035	1007	-nan
0	1643035	1008	-nan
0	1643035	1009	-nan
0	1643035	1010	-nan
0	1643035	1011	0
0	1643035	1012	0
0	1643035	1013	-nan
0	1643035	1014	0
0	1643035	1015	-nan
0	1643035	1016	-nan
0	1643035	1017	0
0	1643035	1018	-nan
0	1643035	1019	0
0	1643035	1020	-nan
0	1643035	1021	-nan
0	1643035	1022	-nan
0	1643035	1023	-nan
0	1643035	1024	-nan
0	1643035	1025	-nan
0	1643035	1026	-nan
0	1643035	1027	-nan
0	1643035	1028	-nan
0	1643035	1029	0
0	1643035	1030	-nan
0	1643035	1031	-nan
0	1643035	1032	-nan
0	1643035	1033	0
0	1643035	1034	0
0	1643035	1035	-nan
0	1643035	1036	-nan
0	1643035	1037	-nan
0	1643035	1038	0
0	1643035	1039	0
0	1643035	1040	-nan
0	1643035	1041	-nan
0	1643035	1042	0
0	1643035	1043	-nan
0	1643035	1044	0
0	1643035	1045	-nan
0	1643035	1046	-nan
0	1643035	1047	0
0	1643035	1048	-nan
0	1643035	1049	-nan
0	1643035	1050	-nan
0	1643035	1051	-nan
0	1643035	1052	0
0	1643035	1053	-nan
0	1643035	1054	-nan
0	1643035	1055	-nan
0	1643035	1056	-nan
0	1643035	1057	-nan
0	1643035	1058	-nan
0	1643035	1059	-nan
0	1643035	1060	-nan
0	1643035	1061	-nan
0	1643035	1062	-nan
0	1643035	1063	-nan
0	1643035	1064	0
0	1643035	1065	0
0	1643035	1066	-nan
0	1643035	1067	-nan
0	1643035	1068	-nan
0	1643035	1069	-nan
0	1643035	1070	-nan
0	1643035	1071	-nan
0	1643035	1072	-nan
0	1643035	1073	-nan
0	1643035	1074	0
0	1643035	1075	0
0	1643035	1076	-nan
0	1643035	1077	-nan
0	1643035	1078	0
0	1643035	1079	0
0	1643035	1080	-nan
0	1643035	1081	-nan
0	1643035	1082	-nan
0	1643035	1083	-nan
0	1643035	1084	-nan
0	1643035	1085	-nan
0	1643035	1086	-nan
0	1643035	1087	-nan
0	1643035	1088	0
0	1643035	1089	-nan
0	1643035	1090	-nan
0	1643035	1091	0
0	1643035	1092	0
0	1643035	1093	-nan
0	1643035	1094	-nan
0	1643035	1095	0
0	1643035	1096	0
0	1643035	1097	-nan
0	1643035	1098	-nan
0	1643035	1099	-nan
0	1643035	1100	-nan
0	1643035	1101	-nan
0	1643035	1102	-nan
0	1643035	1103	-nan
0	1643035	1104	-nan
0	1643035	1105	0
0	1643035	1106	-nan
0	1643035	1107	-nan
0	1643035	1108	-nan
0	1643035	1109	-nan
0	1643035	1110	0
0	1643035	1111	-nan
0	1643035	1112	0
0	1643035	1113	-nan
0	1643035	1114	-nan
0	1643035	1115	-nan
0	1643035	1116	0
0	1643035	1117	0
0	1643035	1118	-nan
0	1643035	1119	0
0	1643035	1120	-nan
0	1643035	1121	0
0	1643035	1122	-nan
0	1643035	1123	-nan
0	1643035	1124	0
0	1643035	1125	0
0	1643035	1126	0
0	1643035	1127	-nan
0	1643035	1128	-nan
0	1643035	1129	-nan
0	1643035	1130	-nan
0	1643035	1131	-nan
0	1643035	1132	-nan
0	1643035	1133	0
0	1643035	1134	0
0	1643035	1135	-nan
0	1643035	1136	-nan
0	1643035	1137	-nan
0	1643035	1138	-nan
0	1643035	1139	-nan
0	1643035	1140	-nan
0	1643035	1141	-nan
0	1643035	1142	-nan
0	1643035	1143	-nan
0	1643035	1144	-nan
0	1643035	1145	-nan
0	1643035	1146	-nan
0	1643035	1147	-nan
0	1643035	1148	-nan
0	1643035	1149	-nan
0	1643035	1150	-nan
0	1643035	1151	-nan
0	1643035	1152	-nan
0	1643035	1153	-nan
0	1643035	1154	-nan
0	1643035	1155	-nan
0	1643035	1156	-nan
0	1643035	1157	0
0	1643035	1158	0
0	1643035	1159	-nan
0	1643035	1160	0
0	1643035	1161	-nan
0	1643035	1162	-nan
0	1643035	1163	0
0	1643035	1164	-nan
0	1643035	1165	-nan
0	1643035	1166	-nan
0	1643035	1167	-nan
0	1643035	1168	-nan
0	1643035	1169	-nan
0	1643035	1170	-nan
0	1643035	1171	0
0	1643035	1172	-nan
0	1643035	1173	-nan
0	1643035	1174	0
0	1643035	1175	-nan
0	1643035	1176	-nan
0	1643035	1177	-nan
0	1643035	1178	-nan
0	1643035	1179	-nan
0	1643035	1180	-nan
0	1643035	1181	-nan
0	1643035	1182	-nan
0	1643035	1183	-nan
0	1643035	1184	-nan
0	1643035	1185	-nan
0	1643035	1186	-nan
0	1643035	1187	-nan
0	1643035	1188	-nan
0	1643035	1189	-nan
0	1643035	1190	-nan
0	1643035	1191	-nan
0	1643035	1192	-nan
0	1643035	1193	0
0	1643035	1194	0
0	1643035	1195	0
0	1643035	1196	-nan
0	1643035	1197	0
0	1643035	1198	-nan
0	1643035	1199	0
0	1643035	1200	0
0	1643035	1201	-nan
0	1643035	1202	-nan
0	1643035	1203	-nan
0	1643035	1204	-nan
0	1643035	1205	-nan
0	1643035	1206	-nan
0	1643035	1207	-nan
0	1643035	1208	0
0	1643035	1209	0
0	1643035	1210	-nan
0	1643035	1211	0
0	1643035	1212	-nan
0	1643035	1213	0
0	1643035	1214	-nan
0	1643035	1215	-nan
0	1643035	1216	-nan
0	1643035	1217	-nan
0	1643035	1218	-nan
0	1643035	1219	-nan
0	1643035	1220	-nan
0	1643035	1221	-nan
0	1643035	1222	-nan
0	1643035	1223	-nan
0	1643035	1224	-nan
0	1643035	1225	-nan
0	1643035	1226	-nan
0	1643035	1227	-nan
0	1643035	1228	-nan
0	1643035	1229	-nan
0	1643035	1230	-nan
0	1643035	1231	0
0	1643035	1232	-nan
0	1643035	1233	0
0	1643035	1234	-nan
0	1643035	1235	-nan
0	1643035	1236	-nan
0	1643035	1237	0
0	1643035	1238	-nan
0	1643035	1239	0
0	1643035	1240	0
0	1643035	1241	0
0	1643035	1242	-nan
0	1643035	1243	-nan
0	1643035	1244	-nan
0	1643035	1245	-nan
0	1643035	1246	-nan
0	1643035	1247	-nan
0	1643035	1248	0
0	1643035	1249	0
0	1643035	1250	-nan
0	1643035	1251	-nan
0	1643035	1252	-nan
0	1643035	1253	0
0	1643035	1254	-nan
0	1643035	1255	-nan
0	1643035	1256	-nan
0	1643035	1257	0
0	1643035	1258	-nan
0	1643035	1259	-nan
0	1643035	1260	0
0	1643035	1261	-nan
0	1643035	1262	-nan
0	1643035	1263	0
0	1643035	1264	-nan
0	1643035	1265	-nan
0	1643035	1266	0
0	1643035	1267	-nan
0	1643035	1268	0
0	1643035	1269	-nan
0	1643035	1270	0
0	1643035	1271	0
0	1643035	1272	-nan
0	1643035	1273	0
0	1643035	1274	0
0	1643035	1275	-nan
0	1643035	1276	-nan
0	1643035	1277	-nan
0	1643035	1278	-nan
0	1643035	1279	-nan
0	1643035	1280	0
0	1643035	1281	-nan
0	1643035	1282	0
0	1643035	1283	-nan
0	1643035	1284	-nan
0	1643035	1285	-nan
0	1643035	1286	0
0	1643035	1287	0
0	1643035	1288	-nan
0	1643035	1289	-nan
0	1643035	1290	-nan
0	1643035	1291	-nan
0	1643035	1292	-nan
0	1643035	1293	-nan
0	1643035	1294	-nan
0	1643035	1295	-nan
0	1643035	1296	-nan
0	1643035	1297	-nan
0	1643035	1298	-nan
0	1643035	1299	0
0	1643035	1300	-nan
0	1643035	1301	-nan
0	1643035	1302	-nan
0	1643035	1303	-nan
0	1643035	1304	-nan
0	1643035	1305	0
0	1643035	1306	0
0	1643035	1307	0
0	1643035	1308	0
0	1643035	1309	0
0	1643035	1310	-nan
0	1643035	1311	-nan
0	1643035	1312	-nan
0	1643035	1313	-nan
0	1643035	1314	-nan
0	1643035	1315	0
0	1643035	1316	-nan
0	1643035	1317	0
0	1643035	1318	-nan
0	1643035	1319	0
0	1643035	1320	0
0	1643035	1321	-nan
0	1643035	1322	-nan
0	1643035	1323	-nan
0	1643035	1324	-nan
0	1643035	1325	-nan
0	1643035	1326	-nan
0	1643035	1327	-nan
0	1643035	1328	0
0	1643035	1329	-nan
0	1643035	1330	-nan
0	1643035	1331	0
0	1643035	1332	-nan
0	1643035	1333	-nan
0	1643035	1334	-nan
0	1643035	1335	-nan
0	1643035	1336	-nan
0	1643035	1337	0
0	1643035	1338	-nan
0	1643035	1339	-nan
0	1643035	1340	0
0	1643035	1341	-nan
0	1643035	1342	-nan
0	1643035	1343	-nan
0	1643035	1344	-nan
0	1643035	1345	-nan
0	1643035	1346	0
0	1643035	1347	-nan
0	1643035	1348	-nan
0	1643035	1349	-nan
0	1643035	1350	-nan
0	1643035	1351	-nan
0	1643035	1352	-nan
0	1643035	1353	-nan
0	1643035	1354	0
0	1643035	1355	-nan
0	1643035	1356	-nan
0	1643035	1357	-nan
0	1643035	1358	0
0	1643035	1359	-nan
0	1643035	1360	-nan
0	1643035	1361	-nan
0	1643035	1362	0
0	1643035	1363	-nan
0	1643035	1364	-nan
0	1643035	1365	-nan
0	1643035	1366	-nan
0	1643035	1367	-nan
0	1643035	1368	-nan
0	1643035	1369	-nan
0	1643035	1370	-nan
0	1643035	1371	-nan
0	1643035	1372	-nan
0	1643035	1373	0
0	1643035	1374	0
0	1643035	1375	-nan
0	1643035	1376	-nan
0	1643035	1377	-nan
0	1643035	1378	0
0	1643035	1379	-nan
0	1643035	1380	0
0	1643035	1381	-nan
0	1643035	1382	0
0	1643035	1383	0
0	1643035	1384	-nan
0	1643035	1385	0
0	1643035	1386	-nan
0	1643035	1387	0
0	1643035	1388	-nan
0	1643035	1389	-nan
0	1643035	1390	-nan
0	1643035	1391	0
0	1643035	1392	-nan
0	1643035	1393	0
0	1643035	1394	-nan
0	1643035	1395	-nan
0	1643035	1396	0
0	1643035	1397	0
0	1643035	1398	-nan
0	1643035	1399	-nan
0	1643035	1400	-nan
0	1643035	1401	-nan
0	1643035	1402	0
0	1643035	1403	-nan
0	1643035	1404	-nan
0	1643035	1405	0
0	1643035	1406	-nan
0	1643035	1407	-nan
0	1643035	1408	0
0	1643035	1409	-nan
0	1643035	1410	-nan
0	1643035	1411	-nan
0	1643035	1412	-nan
0	1643035	1413	-nan
0	1643035	1414	-nan
0	1643035	1415	-nan
0	1643035	1416	-nan
0	1643035	1417	-nan
0	1643035	1418	-nan
0	1643035	1419	-nan
0	1643035	1420	-nan
0	1643035	1421	-nan
0	1643035	1422	-nan
0	1643035	1423	-nan
0	1643035	1424	-nan
0	1643035	1425	-nan
0	1643035	1426	0
0	1643035	1427	-nan
0	1643035	1428	-nan
0	1643035	1429	-nan
0	1643035	1430	-nan
0	1643035	1431	-nan
0	1643035	1432	-nan
0	1643035	1433	-nan
0	1643035	1434	-nan
0	1643035	1435	-nan
0	1643035	1436	0
0	1643035	1437	-nan
0	1643035	1438	-nan
0	1643035	1439	-nan
0	1643035	1440	0
0	1643035	1441	-nan
0	1643035	1442	-nan
0	1643035	1443	0
0	1643035	1444	-nan
0	1643035	1445	0
0	1643035	1446	-nan
0	1643035	1447	-nan
0	1643035	1448	-nan
0	1643035	1449	-nan
0	1643035	1450	-nan
0	1643035	1451	0
0	1643035	1452	-nan
0	1643035	1453	-nan
0	1643035	1454	0
0	1643035	1455	-nan
0	1643035	1456	0
0	1643035	1457	0
0	1643035	1458	-nan
0	1643035	1459	-nan
0	1643035	1460	0
0	1643035	1461	-nan
0	1643035	1462	-nan
0	1643035	1463	-nan
0	1643035	1464	0
0	1643035	1465	-nan
0	1643035	1466	0
0	1643035	1467	-nan
0	1643035	1468	-nan
0	1643035	1469	-nan
0	1643035	1470	-nan
0	1643035	1471	0
0	1643035	1472	-nan
0	1643035	1473	-nan
0	1643035	1474	0
0	1643035	1475	-nan
0	1643035	1476	-nan
0	1643035	1477	0
0	1643035	1478	-nan
0	1643035	1479	-nan
0	1643035	1480	-nan
0	1643035	1481	-nan
0	1643035	1482	-nan
0	1643035	1483	-nan
0	1643035	1484	-nan
0	1643035	1485	-nan
0	1643035	1486	-nan
0	1643035	1487	-nan
0	1643035	1488	-nan
0	1643035	1489	0
0	1643035	1490	-nan
0	1643035	1491	-nan
0	1643035	1492	-nan
0	1643035	1493	-nan
0	1643035	1494	-nan
0	1643035	1495	0
0	1643035	1496	0
0	1643035	1497	-nan
0	1643035	1498	-nan
0	1643035	1499	0
0	1643035	1500	0
0	1643035	1501	-nan
0	1643035	1502	-nan
0	1643035	1503	-nan
0	1643035	1504	-nan
0	1643035	1505	-nan
0	1643035	1506	-nan
0	1643035	1507	-nan
0	1643035	1508	-nan
0	1643035	1509	-nan
0	1643035	1510	-nan
0	1643035	1511	-nan
0	1643035	1512	-nan
0	1643035	1513	-nan
0	1643035	1514	-nan
0	1643035	1515	-nan
0	1643035	1516	-nan
0	1643035	1517	-nan
0	1643035	1518	0
0	1643035	1519	-nan
0	1643035	1520	-nan
0	1643035	1521	-nan
0	1643035	1522	-nan
0	1643035	1523	0
0	1643035	1524	0
0	1643035	1525	-nan
0	1643035	1526	-nan
0	1643035	1527	0
0	1643035	1528	-nan
0	1643035	1529	-nan
0	1643035	1530	-nan
0	1643035	1531	-nan
0	1643035	1532	0
0	1643035	1533	-nan
0	1643035	1534	-nan
0	1643035	1535	-nan
0	1643035	1536	-nan
0	1643035	1537	-nan
0	1643035	1538	-nan
0	1643035	1539	-nan
0	1643035	1540	-nan
0	1643035	1541	-nan
0	1643035	1542	-nan
0	1643035	1543	0
0	1643035	1544	-nan
0	1643035	1545	-nan
0	1643035	1546	-nan
0	1643035	1547	0
0	1643035	1548	-nan
0	1643035	1549	-nan
0	1643035	1550	-nan
0	1643035	1551	-nan
0	1643035	1552	-nan
0	1643035	1553	-nan
0	1643035	1554	-nan
0	1643035	1555	-nan
0	1643035	1556	0
0	1643035	1557	-nan
0	1643035	1558	0
0	1643035	1559	-nan
0	1643035	1560	-nan
0	1643035	1561	0
0	1643035	1562	-nan
0	1643035	1563	-nan
0	1643035	1564	0
0	1643035	1565	-nan
0	1643035	1566	0
0	1643035	1567	-nan
0	1643035	1568	-nan
0	1643035	1569	-nan
0	1643035	1570	-nan
0	1643035	1571	-nan
0	1643035	1572	-nan
0	1643035	1573	-nan
0	1643035	1574	-nan
0	1643035	1575	-nan
0	1643035	1576	-nan
0	1643035	1577	-nan
0	1643035	1578	-nan
0	1643035	1579	-nan
0	1643035	1580	0
0	1643035	1581	-nan
0	1643035	1582	-nan
0	1643035	1583	0
0	1643035	1584	-nan
0	1643035	1585	-nan
0	1643035	1586	-nan
0	1643035	1587	-nan
0	1643035	1588	0
0	1643035	1589	-nan
0	1643035	1590	-nan
0	1643035	1591	0
0	1643035	1592	0
0	1643035	1593	-nan
0	1643035	1594	-nan
0	1643035	1595	-nan
0	1643035	1596	0
0	1643035	1597	-nan
0	1643035	1598	-nan
0	1643035	1599	-nan