version 2
run General-17-20140101-23:36:56-24991
attr D lce
attr F spr
attr R lru
attr a 1
attr configname General
attr csize 10^3
attr datetime 20140101-23:36:56
attr experiment General
attr inifile omnetpp.ini
attr iterationvars "$net=simple_scenario_cache_at_border, $rep=0, $a=1, $F=spr, $ttl=1000, $D=lce, $R=lru, $csize=10^3"
attr iterationvars2 "$net=simple_scenario_cache_at_border, $rep=0, $a=1, $F=spr, $ttl=1000, $D=lce, $R=lru, $csize=10^3, $repetition=0"
attr measurement "$net=simple_scenario_cache_at_border, $rep=0, $a=1, $F=spr, $ttl=1000, $D=lce, $R=lru, $csize=10^3"
attr net simple_scenario_cache_at_border
attr network networks.${net=simple_scenario_cache_in_the_core,simple_scenario_cache_at_border}_network
attr processid 24991
attr rep 0
attr repetition 0
attr replication #0
attr resultdir results
attr runnumber 17
attr seedset 0
attr ttl 1000

vector 102  simple_scenario_cache_at_border_network.node[0].content_store  hit_node[0]  ETV
102	1257538	1	0
102	1257538	2	0
102	1257538	3	0
102	1257538	4	0
102	1257538	5	0
102	1257538	6	0
102	1257538	7	0
102	1257538	8	0
102	1257538	9	0
102	1257538	10	0
102	1257538	11	0
102	1257538	12	0
102	1257538	13	0
102	1257538	14	0
102	1257538	15	0
102	1257538	16	0
102	1257538	17	0
102	1257538	18	0
102	1257538	19	0
102	1257538	20	0
102	1257538	21	0
102	1257538	22	0
102	1257538	23	0
102	1257538	24	0
102	1257538	25	0
102	1257538	26	0
102	1257538	27	0
102	1257538	28	0
102	1257538	29	0
102	1257538	30	0
102	1257538	31	0
102	1257538	32	0
102	1257538	33	0
102	1257538	34	0
102	1257538	35	0
102	1257538	36	0
102	1257538	37	0
102	1257538	38	0
102	1257538	39	0
102	1257538	40	0
102	1257538	41	0
102	1257538	42	0
102	1257538	43	0
102	1257538	44	0
102	1257538	45	0
102	1257538	46	0
102	1257538	47	0
102	1257538	48	0
102	1257538	49	0
102	1257538	50	0
102	1257538	51	0
102	1257538	52	0
102	1257538	53	0
102	1257538	54	0
102	1257538	55	0
102	1257538	56	0
102	1257538	57	0
102	1257538	58	0
102	1257538	59	0
102	1257538	60	0
102	1257538	61	0
102	1257538	62	0
102	1257538	63	0
102	1257538	64	0
102	1257538	65	0
102	1257538	66	0
102	1257538	67	0
102	1257538	68	0
102	1257538	69	0
102	1257538	70	0
102	1257538	71	0
102	1257538	72	0
102	1257538	73	0
102	1257538	74	0
102	1257538	75	0
102	1257538	76	0
102	1257538	77	0
102	1257538	78	0
102	1257538	79	0
102	1257538	80	0
102	1257538	81	0
102	1257538	82	0
102	1257538	83	0
102	1257538	84	0
102	1257538	85	0
102	1257538	86	0
102	1257538	87	0
102	1257538	88	0
102	1257538	89	0
102	1257538	90	0
102	1257538	91	0
102	1257538	92	0
102	1257538	93	0
102	1257538	94	0
102	1257538	95	0
102	1257538	96	0
102	1257538	97	0
102	1257538	98	0
102	1257538	99	0
102	1257538	100	0
102	1257538	101	0
102	1257538	102	0
102	1257538	103	0
102	1257538	104	0
102	1257538	105	0
102	1257538	106	0
102	1257538	107	0
102	1257538	108	0
102	1257538	109	0
102	1257538	110	0
102	1257538	111	0
102	1257538	112	0
102	1257538	113	0
102	1257538	114	0
102	1257538	115	0
102	1257538	116	0
102	1257538	117	0
102	1257538	118	0
102	1257538	119	0
102	1257538	120	0
102	1257538	121	0
102	1257538	122	0
102	1257538	123	0
102	1257538	124	0
102	1257538	125	0
102	1257538	126	0
102	1257538	127	0
102	1257538	128	0
102	1257538	129	0
102	1257538	130	0
102	1257538	131	0
102	1257538	132	0
102	1257538	133	0
102	1257538	134	0
102	1257538	135	0
102	1257538	136	0
102	1257538	137	0
102	1257538	138	0
102	1257538	139	0
102	1257538	140	0
102	1257538	141	0
102	1257538	142	0
102	1257538	143	0
102	1257538	144	0
102	1257538	145	0
102	1257538	146	0
102	1257538	147	0
102	1257538	148	0
102	1257538	149	0
102	1257538	150	0
102	1257538	151	0
102	1257538	152	0
102	1257538	153	0
102	1257538	154	0
102	1257538	155	0
102	1257538	156	0
102	1257538	157	0
102	1257538	158	0
102	1257538	159	0
102	1257538	160	0
102	1257538	161	0
102	1257538	162	0
102	1257538	163	0
102	1257538	164	0
102	1257538	165	0
102	1257538	166	0
102	1257538	167	0
102	1257538	168	0
102	1257538	169	0
102	1257538	170	0
102	1257538	171	0
102	1257538	172	0
102	1257538	173	0
102	1257538	174	0
102	1257538	175	0
102	1257538	176	0
102	1257538	177	0
102	1257538	178	0
102	1257538	179	0
102	1257538	180	0
102	1257538	181	0
102	1257538	182	0
102	1257538	183	0
102	1257538	184	0
102	1257538	185	0
102	1257538	186	0
102	1257538	187	0
102	1257538	188	0
102	1257538	189	0
102	1257538	190	0
102	1257538	191	0
102	1257538	192	0
102	1257538	193	0
102	1257538	194	0
102	1257538	195	0
102	1257538	196	0
102	1257538	197	0
102	1257538	198	0
102	1257538	199	0
102	1257538	200	0
102	1257538	201	0
102	1257538	202	0
102	1257538	203	0
102	1257538	204	0
102	1257538	205	0
102	1257538	206	0
102	1257538	207	0
102	1257538	208	0
102	1257538	209	0
102	1257538	210	0
102	1257538	211	0
102	1257538	212	0
102	1257538	213	0
102	1257538	214	0
102	1257538	215	0
102	1257538	216	0
102	1257538	217	0
102	1257538	218	0
102	1257538	219	0
102	1257538	220	0
102	1257538	221	0
102	1257538	222	0
102	1257538	223	0
102	1257538	224	0
102	1257538	225	0
102	1257538	226	0
102	1257538	227	0
102	1257538	228	0
102	1257538	229	0
102	1257538	230	0
102	1257538	231	0
102	1257538	232	0
102	1257538	233	0
102	1257538	234	0
102	1257538	235	0
102	1257538	236	0
102	1257538	237	0
102	1257538	238	0
102	1257538	239	0
102	1257538	240	0
102	1257538	241	0
102	1257538	242	0
102	1257538	243	0
102	1257538	244	0
102	1257538	245	0
102	1257538	246	0
102	1257538	247	0
102	1257538	248	0
102	1257538	249	0
102	1257538	250	0
102	1257538	251	0
102	1257538	252	0
102	1257538	253	0
102	1257538	254	0
102	1257538	255	0
102	1257538	256	0
102	1257538	257	0
102	1257538	258	0
102	1257538	259	0
102	1257538	260	0
102	1257538	261	0
102	1257538	262	0
102	1257538	263	0
102	1257538	264	0
102	1257538	265	0
102	1257538	266	0
102	1257538	267	0
102	1257538	268	0
102	1257538	269	0
102	1257538	270	0
102	1257538	271	0
102	1257538	272	0
102	1257538	273	0
102	1257538	274	0
102	1257538	275	0
102	1257538	276	0
102	1257538	277	0
102	1257538	278	0
102	1257538	279	0
102	1257538	280	0
102	1257538	281	0
102	1257538	282	0
102	1257538	283	0
102	1257538	284	0
102	1257538	285	0
102	1257538	286	0
102	1257538	287	0
102	1257538	288	0
102	1257538	289	0
102	1257538	290	0
102	1257538	291	0
102	1257538	292	0
102	1257538	293	0
102	1257538	294	0
102	1257538	295	0
102	1257538	296	0
102	1257538	297	0
102	1257538	298	0
102	1257538	299	0
102	1257538	300	0
102	1257538	301	0
102	1257538	302	0
102	1257538	303	0
102	1257538	304	0
102	1257538	305	0
102	1257538	306	0
102	1257538	307	0
102	1257538	308	0
102	1257538	309	0
102	1257538	310	0
102	1257538	311	0
102	1257538	312	0
102	1257538	313	0
102	1257538	314	0
102	1257538	315	0
102	1257538	316	0
102	1257538	317	0
102	1257538	318	0
102	1257538	319	0
102	1257538	320	0
102	1257538	321	0
102	1257538	322	0
102	1257538	323	0
102	1257538	324	0
102	1257538	325	0
102	1257538	326	0
102	1257538	327	0
102	1257538	328	0
102	1257538	329	0
102	1257538	330	0
102	1257538	331	0
102	1257538	332	0
102	1257538	333	0
102	1257538	334	0
102	1257538	335	0
102	1257538	336	0
102	1257538	337	0
102	1257538	338	0
102	1257538	339	0
102	1257538	340	0
102	1257538	341	0
102	1257538	342	0
102	1257538	343	0
102	1257538	344	0
102	1257538	345	0
102	1257538	346	0
102	1257538	347	0
102	1257538	348	0
102	1257538	349	0
102	1257538	350	0
102	1257538	351	0
102	1257538	352	0
102	1257538	353	0
102	1257538	354	0
102	1257538	355	0
102	1257538	356	0
102	1257538	357	0
102	1257538	358	0
102	1257538	359	0
102	1257538	360	0
102	1257538	361	0
102	1257538	362	0
102	1257538	363	0
102	1257538	364	0
102	1257538	365	0
102	1257538	366	0
102	1257538	367	0
102	1257538	368	0
102	1257538	369	0
102	1257538	370	0
102	1257538	371	0
102	1257538	372	0
102	1257538	373	0
102	1257538	374	0
102	1257538	375	0
102	1257538	376	0
102	1257538	377	0
102	1257538	378	0
102	1257538	379	0
102	1257538	380	0
102	1257538	381	0
102	1257538	382	0
102	1257538	383	0
102	1257538	384	0
102	1257538	385	0
102	1257538	386	0
102	1257538	387	0
102	1257538	388	0
102	1257538	389	0
102	1257538	390	0
102	1257538	391	0
102	1257538	392	0
102	1257538	393	0
102	1257538	394	0
102	1257538	395	0
102	1257538	396	0
102	1257538	397	0
102	1257538	398	0
102	1257538	399	0
102	1257538	400	0
102	1257538	401	0
102	1257538	402	0
102	1257538	403	0
102	1257538	404	0
102	1257538	405	0
102	1257538	406	0
102	1257538	407	0
102	1257538	408	0
102	1257538	409	0
102	1257538	410	0
102	1257538	411	0
102	1257538	412	0
102	1257538	413	0
102	1257538	414	0
102	1257538	415	0
102	1257538	416	0
102	1257538	417	0
102	1257538	418	0
102	1257538	419	0
102	1257538	420	0
102	1257538	421	0
102	1257538	422	0
102	1257538	423	0
102	1257538	424	0
102	1257538	425	0
102	1257538	426	0
102	1257538	427	0
102	1257538	428	0
102	1257538	429	0
102	1257538	430	0
102	1257538	431	0
102	1257538	432	0
102	1257538	433	0
102	1257538	434	0
102	1257538	435	0
102	1257538	436	0
102	1257538	437	0
102	1257538	438	0
102	1257538	439	0
102	1257538	440	0
102	1257538	441	0
102	1257538	442	0
102	1257538	443	0
102	1257538	444	0
102	1257538	445	0
102	1257538	446	0
102	1257538	447	0
102	1257538	448	0
102	1257538	449	0
102	1257538	450	0
102	1257538	451	0
102	1257538	452	0
102	1257538	453	0
102	1257538	454	0
102	1257538	455	0
102	1257538	456	0
102	1257538	457	0
102	1257538	458	0
102	1257538	459	0
102	1257538	460	0
102	1257538	461	0
102	1257538	462	0
102	1257538	463	0
102	1257538	464	0
102	1257538	465	0
102	1257538	466	0
102	1257538	467	0
102	1257538	468	0
102	1257538	469	0
102	1257538	470	0
102	1257538	471	0
102	1257538	472	0
102	1257538	473	0
102	1257538	474	0
102	1257538	475	0
102	1257538	476	0
102	1257538	477	0
102	1257538	478	0
102	1257538	479	0
102	1257538	480	0
102	1257538	481	0
102	1257538	482	0
102	1257538	483	0
102	1257538	484	0
102	1257538	485	0
102	1257538	486	0
102	1257538	487	0
102	1257538	488	0
102	1257538	489	0
102	1257538	490	0
102	1257538	491	0
102	1257538	492	0
102	1257538	493	0
102	1257538	494	0
102	1257538	495	0
102	1257538	496	0
102	1257538	497	0
102	1257538	498	0
102	1257538	499	0
102	1257538	500	0
102	1257538	501	0
102	1257538	502	0
102	1257538	503	0
102	1257538	504	0
102	1257538	505	0
102	1257538	506	0
102	1257538	507	0
102	1257538	508	0
102	1257538	509	0
102	1257538	510	0
102	1257538	511	0
102	1257538	512	0
102	1257538	513	0
102	1257538	514	0
102	1257538	515	0
102	1257538	516	0
102	1257538	517	0
102	1257538	518	0
102	1257538	519	0
102	1257538	520	0
102	1257538	521	0
102	1257538	522	0
102	1257538	523	0
102	1257538	524	0
102	1257538	525	0
102	1257538	526	0
102	1257538	527	0
102	1257538	528	0
102	1257538	529	0
102	1257538	530	0
102	1257538	531	0
102	1257538	532	0
102	1257538	533	0
102	1257538	534	0
102	1257538	535	0
102	1257538	536	0
102	1257538	537	0
102	1257538	538	0
102	1257538	539	0
102	1257538	540	0
102	1257538	541	0
102	1257538	542	0
102	1257538	543	0
102	1257538	544	0
102	1257538	545	0
102	1257538	546	0
102	1257538	547	0
102	1257538	548	0
102	1257538	549	0
102	1257538	550	0
102	1257538	551	0
102	1257538	552	0
102	1257538	553	0
102	1257538	554	0
102	1257538	555	0
102	1257538	556	0
102	1257538	557	0
102	1257538	558	0
102	1257538	559	0
102	1257538	560	0
102	1257538	561	0
102	1257538	562	0
102	1257538	563	0
102	1257538	564	0
102	1257538	565	0
102	1257538	566	0
102	1257538	567	0
102	1257538	568	0
102	1257538	569	0
102	1257538	570	0
102	1257538	571	0
102	1257538	572	0
102	1257538	573	0
102	1257538	574	0
102	1257538	575	0
102	1257538	576	0
102	1257538	577	0
102	1257538	578	0
102	1257538	579	0
102	1257538	580	0
102	1257538	581	0
102	1257538	582	0
102	1257538	583	0
102	1257538	584	0
102	1257538	585	0
102	1257538	586	0
102	1257538	587	0
102	1257538	588	0
102	1257538	589	0
102	1257538	590	0
102	1257538	591	0
102	1257538	592	0
102	1257538	593	0
102	1257538	594	0
102	1257538	595	0
102	1257538	596	0
102	1257538	597	0
102	1257538	598	0
102	1257538	599	0
102	1257538	600	0
102	1257538	601	0
102	1257538	602	0
102	1257538	603	0
102	1257538	604	0
102	1257538	605	0
102	1257538	606	0
102	1257538	607	0
102	1257538	608	0
102	1257538	609	0
102	1257538	610	0
102	1257538	611	0
102	1257538	612	0
102	1257538	613	0
102	1257538	614	0
102	1257538	615	0
102	1257538	616	0
102	1257538	617	0
102	1257538	618	0
102	1257538	619	0
102	1257538	620	0
102	1257538	621	0
102	1257538	622	0
102	1257538	623	0
102	1257538	624	0
102	1257538	625	0
102	1257538	626	0
102	1257538	627	0
102	1257538	628	0
102	1257538	629	0
102	1257538	630	0
102	1257538	631	0
102	1257538	632	0
102	1257538	633	0
102	1257538	634	0
102	1257538	635	0
102	1257538	636	0
102	1257538	637	0
102	1257538	638	0
102	1257538	639	0
102	1257538	640	0
102	1257538	641	0
102	1257538	642	0
102	1257538	643	0
102	1257538	644	0
102	1257538	645	0
102	1257538	646	0
102	1257538	647	0
102	1257538	648	0
102	1257538	649	0
102	1257538	650	0
102	1257538	651	0
102	1257538	652	0
102	1257538	653	0
102	1257538	654	0
102	1257538	655	0
102	1257538	656	0
102	1257538	657	0
102	1257538	658	0
102	1257538	659	0
102	1257538	660	0
102	1257538	661	0
102	1257538	662	0
102	1257538	663	0
102	1257538	664	0
102	1257538	665	0
102	1257538	666	0
102	1257538	667	0
102	1257538	668	0
102	1257538	669	0
102	1257538	670	0
102	1257538	671	0
102	1257538	672	0
102	1257538	673	0
102	1257538	674	0
102	1257538	675	0
102	1257538	676	0
102	1257538	677	0
102	1257538	678	0
102	1257538	679	0
102	1257538	680	0
102	1257538	681	0
102	1257538	682	0
102	1257538	683	0
102	1257538	684	0
102	1257538	685	0
102	1257538	686	0
102	1257538	687	0
102	1257538	688	0
102	1257538	689	0
102	1257538	690	0
102	1257538	691	0
102	1257538	692	0
102	1257538	693	0
102	1257538	694	0
102	1257538	695	0
102	1257538	696	0
102	1257538	697	0
102	1257538	698	0
102	1257538	699	0
102	1257538	700	0
102	1257538	701	0
102	1257538	702	0
102	1257538	703	0
102	1257538	704	0
102	1257538	705	0
102	1257538	706	0
102	1257538	707	0
102	1257538	708	0
102	1257538	709	0
102	1257538	710	0
102	1257538	711	0
102	1257538	712	0
102	1257538	713	0
102	1257538	714	0
102	1257538	715	0
102	1257538	716	0
102	1257538	717	0
102	1257538	718	0
102	1257538	719	0
102	1257538	720	0
102	1257538	721	0
102	1257538	722	0
102	1257538	723	0
102	1257538	724	0
102	1257538	725	0
102	1257538	726	0
102	1257538	727	0
102	1257538	728	0
102	1257538	729	0
102	1257538	730	0
102	1257538	731	0
102	1257538	732	0
102	1257538	733	0
102	1257538	734	0
102	1257538	735	0
102	1257538	736	0
102	1257538	737	0
102	1257538	738	0
102	1257538	739	0
102	1257538	740	0
102	1257538	741	0
102	1257538	742	0
102	1257538	743	0
102	1257538	744	0
102	1257538	745	0
102	1257538	746	0
102	1257538	747	0
102	1257538	748	0
102	1257538	749	0
102	1257538	750	0
vector 103  simple_scenario_cache_at_border_network.node[1].content_store  hit_node[1]  ETV
103	1257538	1	1
103	1257538	2	-nan
103	1257538	3	-nan
103	1257538	4	1
103	1257538	5	-nan
103	1257538	6	-nan
103	1257538	7	-nan
103	1257538	8	-nan
103	1257538	9	-nan
103	1257538	10	-nan
103	1257538	11	-nan
103	1257538	12	1
103	1257538	13	1
103	1257538	14	-nan
103	1257538	15	1
103	1257538	16	1
103	1257538	17	1
103	1257538	18	1
103	1257538	19	1
103	1257538	20	-nan
103	1257538	21	1
103	1257538	22	-nan
103	1257538	23	-nan
103	1257538	24	1
103	1257538	25	1
103	1257538	26	-nan
103	1257538	27	-nan
103	1257538	28	-nan
103	1257538	29	-nan
103	1257538	30	1
103	1257538	31	-nan
103	1257538	32	1
103	1257538	33	-nan
103	1257538	34	1
103	1257538	35	-nan
103	1257538	36	-nan
103	1257538	37	1
103	1257538	38	-nan
103	1257538	39	-nan
103	1257538	40	0.99667774086379
103	1257538	41	0.99298245614035
103	1257538	42	-nan
103	1257538	43	0.99666666666667
103	1257538	44	-nan
103	1257538	45	-nan
103	1257538	46	-nan
103	1257538	47	-nan
103	1257538	48	-nan
103	1257538	49	0.98837209302326
103	1257538	50	-nan
103	1257538	51	0.99203187250996
103	1257538	52	-nan
103	1257538	53	-nan
103	1257538	54	-nan
103	1257538	55	-nan
103	1257538	56	0.97368421052632
103	1257538	57	-nan
103	1257538	58	0.99196787148594
103	1257538	59	0.98421052631579
103	1257538	60	-nan
103	1257538	61	-nan
103	1257538	62	0.9468085106383
103	1257538	63	-nan
103	1257538	64	0.96808510638298
103	1257538	65	-nan
103	1257538	66	0.97252747252747
103	1257538	67	0.97883597883598
103	1257538	68	0.96511627906977
103	1257538	69	0.97536945812808
103	1257538	70	0.9639175257732
103	1257538	71	-nan
103	1257538	72	-nan
103	1257538	73	0.9585798816568
103	1257538	74	0.98429319371728
103	1257538	75	0.94444444444444
103	1257538	76	-nan
103	1257538	77	-nan
103	1257538	78	0.92805755395683
103	1257538	79	-nan
103	1257538	80	0.93670886075949
103	1257538	81	0.91608391608392
103	1257538	82	-nan
103	1257538	83	0.93197278911565
103	1257538	84	-nan
103	1257538	85	-nan
103	1257538	86	-nan
103	1257538	87	-nan
103	1257538	88	-nan
103	1257538	89	-nan
103	1257538	90	0.93055555555556
103	1257538	91	-nan
103	1257538	92	-nan
103	1257538	93	0.9009009009009
103	1257538	94	0.89075630252101
103	1257538	95	-nan
103	1257538	96	0.91791044776119
103	1257538	97	0.8785046728972
103	1257538	98	-nan
103	1257538	99	-nan
103	1257538	100	0.86842105263158
103	1257538	101	-nan
103	1257538	102	0.87387387387387
103	1257538	103	0.88429752066116
103	1257538	104	-nan
103	1257538	105	0.89915966386555
103	1257538	106	0.91911764705882
103	1257538	107	0.87931034482759
103	1257538	108	-nan
103	1257538	109	-nan
103	1257538	110	0.9140625
103	1257538	111	-nan
103	1257538	112	0.8785046728972
103	1257538	113	0.84684684684685
103	1257538	114	0.82828282828283
103	1257538	115	0.85436893203883
103	1257538	116	0.81521739130435
103	1257538	117	-nan
103	1257538	118	0.84848484848485
103	1257538	119	-nan
103	1257538	120	0.8
103	1257538	121	-nan
103	1257538	122	-nan
103	1257538	123	-nan
103	1257538	124	-nan
103	1257538	125	-nan
103	1257538	126	0.83333333333333
103	1257538	127	-nan
103	1257538	128	-nan
103	1257538	129	-nan
103	1257538	130	-nan
103	1257538	131	0.86868686868687
103	1257538	132	-nan
103	1257538	133	-nan
103	1257538	134	0.82291666666667
103	1257538	135	0.82242990654206
103	1257538	136	-nan
103	1257538	137	0.81521739130435
103	1257538	138	0.86725663716814
103	1257538	139	0.78409090909091
103	1257538	140	0.84848484848485
103	1257538	141	-nan
103	1257538	142	-nan
103	1257538	143	0.80412371134021
103	1257538	144	0.83168316831683
103	1257538	145	-nan
103	1257538	146	0.82758620689655
103	1257538	147	-nan
103	1257538	148	-nan
103	1257538	149	-nan
103	1257538	150	-nan
103	1257538	151	0.78571428571429
103	1257538	152	0.76190476190476
103	1257538	153	0.74285714285714
103	1257538	154	-nan
103	1257538	155	0.83516483516484
103	1257538	156	-nan
103	1257538	157	-nan
103	1257538	158	-nan
103	1257538	159	0.74666666666667
103	1257538	160	-nan
103	1257538	161	0.76470588235294
103	1257538	162	0.75903614457831
103	1257538	163	-nan
103	1257538	164	0.7
103	1257538	165	-nan
103	1257538	166	-nan
103	1257538	167	0.74324324324324
103	1257538	168	0.7710843373494
103	1257538	169	-nan
103	1257538	170	0.65217391304348
103	1257538	171	-nan
103	1257538	172	0.66153846153846
103	1257538	173	-nan
103	1257538	174	0.72368421052632
103	1257538	175	-nan
103	1257538	176	0.75641025641026
103	1257538	177	-nan
103	1257538	178	0.69354838709677
103	1257538	179	0.6551724137931
103	1257538	180	0.71875
103	1257538	181	-nan
103	1257538	182	0.8
103	1257538	183	-nan
103	1257538	184	0.66153846153846
103	1257538	185	-nan
103	1257538	186	0.72058823529412
103	1257538	187	0.66666666666667
103	1257538	188	0.73170731707317
103	1257538	189	0.70149253731343
103	1257538	190	0.82222222222222
103	1257538	191	-nan
103	1257538	192	0.6969696969697
103	1257538	193	0.67796610169492
103	1257538	194	-nan
103	1257538	195	0.75
103	1257538	196	0.64179104477612
103	1257538	197	0.62
103	1257538	198	-nan
103	1257538	199	0.73529411764706
103	1257538	200	0.70588235294118
103	1257538	201	-nan
103	1257538	202	0.68965517241379
103	1257538	203	-nan
103	1257538	204	0.68333333333333
103	1257538	205	0.62264150943396
103	1257538	206	-nan
103	1257538	207	-nan
103	1257538	208	0.71014492753623
103	1257538	209	0.56
103	1257538	210	0.62068965517241
103	1257538	211	-nan
103	1257538	212	-nan
103	1257538	213	0.74074074074074
103	1257538	214	0.76056338028169
103	1257538	215	0.68518518518519
103	1257538	216	0.62745098039216
103	1257538	217	0.54545454545455
103	1257538	218	-nan
103	1257538	219	0.72131147540984
103	1257538	220	-nan
103	1257538	221	0.6
103	1257538	222	0.64406779661017
103	1257538	223	0.6
103	1257538	224	-nan
103	1257538	225	-nan
103	1257538	226	-nan
103	1257538	227	0.6551724137931
103	1257538	228	0.67307692307692
103	1257538	229	-nan
103	1257538	230	-nan
103	1257538	231	-nan
103	1257538	232	-nan
103	1257538	233	0.63461538461538
103	1257538	234	0.74603174603175
103	1257538	235	0.57142857142857
103	1257538	236	-nan
103	1257538	237	-nan
103	1257538	238	0.61111111111111
103	1257538	239	-nan
103	1257538	240	0.57142857142857
103	1257538	241	0.64406779661017
103	1257538	242	-nan
103	1257538	243	0.57142857142857
103	1257538	244	-nan
103	1257538	245	-nan
103	1257538	246	-nan
103	1257538	247	-nan
103	1257538	248	0.69354838709677
103	1257538	249	0.66071428571429
103	1257538	250	0.57446808510638
103	1257538	251	-nan
103	1257538	252	-nan
103	1257538	253	-nan
103	1257538	254	0.63461538461538
103	1257538	255	-nan
103	1257538	256	-nan
103	1257538	257	-nan
103	1257538	258	-nan
103	1257538	259	0.51020408163265
103	1257538	260	0.48979591836735
103	1257538	261	-nan
103	1257538	262	-nan
103	1257538	263	0.44736842105263
103	1257538	264	0.45945945945946
103	1257538	265	0.6304347826087
103	1257538	266	-nan
103	1257538	267	-nan
103	1257538	268	0.43243243243243
103	1257538	269	-nan
103	1257538	270	-nan
103	1257538	271	-nan
103	1257538	272	-nan
103	1257538	273	-nan
103	1257538	274	0.5625
103	1257538	275	0.47222222222222
103	1257538	276	0.64814814814815
103	1257538	277	-nan
103	1257538	278	0.46153846153846
103	1257538	279	-nan
103	1257538	280	0.56521739130435
103	1257538	281	-nan
103	1257538	282	-nan
103	1257538	283	0.62745098039216
103	1257538	284	0.57142857142857
103	1257538	285	0.53488372093023
103	1257538	286	-nan
103	1257538	287	0.54901960784314
103	1257538	288	0.46938775510204
103	1257538	289	-nan
103	1257538	290	-nan
103	1257538	291	-nan
103	1257538	292	-nan
103	1257538	293	0.45238095238095
103	1257538	294	-nan
103	1257538	295	0.61702127659574
103	1257538	296	0.47619047619048
103	1257538	297	0.55813953488372
103	1257538	298	0.60975609756098
103	1257538	299	-nan
103	1257538	300	-nan
103	1257538	301	-nan
103	1257538	302	0.48717948717949
103	1257538	303	-nan
103	1257538	304	0.62790697674419
103	1257538	305	0.53658536585366
103	1257538	306	-nan
103	1257538	307	-nan
103	1257538	308	-nan
103	1257538	309	-nan
103	1257538	310	-nan
103	1257538	311	-nan
103	1257538	312	0.58333333333333
103	1257538	313	0.54347826086957
103	1257538	314	-nan
103	1257538	315	-nan
103	1257538	316	-nan
103	1257538	317	-nan
103	1257538	318	-nan
103	1257538	319	-nan
103	1257538	320	-nan
103	1257538	321	-nan
103	1257538	322	-nan
103	1257538	323	-nan
103	1257538	324	0.41935483870968
103	1257538	325	0.525
103	1257538	326	0.58536585365854
103	1257538	327	0.47368421052632
103	1257538	328	-nan
103	1257538	329	-nan
103	1257538	330	-nan
103	1257538	331	0.37931034482759
103	1257538	332	-nan
103	1257538	333	-nan
103	1257538	334	-nan
103	1257538	335	-nan
103	1257538	336	-nan
103	1257538	337	-nan
103	1257538	338	-nan
103	1257538	339	0.54545454545455
103	1257538	340	0.5
103	1257538	341	0.60526315789474
103	1257538	342	0.6
103	1257538	343	-nan
103	1257538	344	-nan
103	1257538	345	0.34285714285714
103	1257538	346	-nan
103	1257538	347	0.36666666666667
103	1257538	348	0.57142857142857
103	1257538	349	-nan
103	1257538	350	0.38709677419355
103	1257538	351	-nan
103	1257538	352	0.59090909090909
103	1257538	353	-nan
103	1257538	354	0.5
103	1257538	355	0.42105263157895
103	1257538	356	0.51282051282051
103	1257538	357	0.55263157894737
103	1257538	358	-nan
103	1257538	359	-nan
103	1257538	360	-nan
103	1257538	361	0.39393939393939
103	1257538	362	-nan
103	1257538	363	0.51162790697674
103	1257538	364	-nan
103	1257538	365	0.42424242424242
103	1257538	366	0.38235294117647
103	1257538	367	0.24242424242424
103	1257538	368	0.45454545454545
103	1257538	369	-nan
103	1257538	370	-nan
103	1257538	371	-nan
103	1257538	372	0.36666666666667
103	1257538	373	-nan
103	1257538	374	0.37931034482759
103	1257538	375	0.5
103	1257538	376	-nan
103	1257538	377	-nan
103	1257538	378	-nan
103	1257538	379	0.48717948717949
103	1257538	380	-nan
103	1257538	381	-nan
103	1257538	382	0.48571428571429
103	1257538	383	-nan
103	1257538	384	0.32258064516129
103	1257538	385	-nan
103	1257538	386	-nan
103	1257538	387	0.4375
103	1257538	388	0.36363636363636
103	1257538	389	-nan
103	1257538	390	-nan
103	1257538	391	0.45833333333333
103	1257538	392	-nan
103	1257538	393	-nan
103	1257538	394	-nan
103	1257538	395	-nan
103	1257538	396	-nan
103	1257538	397	-nan
103	1257538	398	0.28571428571429
103	1257538	399	0.57142857142857
103	1257538	400	-nan
103	1257538	401	0.5
103	1257538	402	-nan
103	1257538	403	0.59459459459459
103	1257538	404	0.4
103	1257538	405	-nan
103	1257538	406	-nan
103	1257538	407	-nan
103	1257538	408	-nan
103	1257538	409	-nan
103	1257538	410	0.47826086956522
103	1257538	411	-nan
103	1257538	412	-nan
103	1257538	413	-nan
103	1257538	414	0.31818181818182
103	1257538	415	0.44444444444444
103	1257538	416	-nan
103	1257538	417	-nan
103	1257538	418	0.45161290322581
103	1257538	419	-nan
103	1257538	420	-nan
103	1257538	421	-nan
103	1257538	422	0.35714285714286
103	1257538	423	0.37931034482759
103	1257538	424	0.46666666666667
103	1257538	425	-nan
103	1257538	426	0.3448275862069
103	1257538	427	0.60606060606061
103	1257538	428	0.55263157894737
103	1257538	429	0.45714285714286
103	1257538	430	0.43589743589744
103	1257538	431	0.41666666666667
103	1257538	432	-nan
103	1257538	433	-nan
103	1257538	434	-nan
103	1257538	435	0.44
103	1257538	436	0.38461538461538
103	1257538	437	-nan
103	1257538	438	-nan
103	1257538	439	-nan
103	1257538	440	0.46666666666667
103	1257538	441	-nan
103	1257538	442	0.38461538461538
103	1257538	443	-nan
103	1257538	444	0.35483870967742
103	1257538	445	-nan
103	1257538	446	-nan
103	1257538	447	-nan
103	1257538	448	0.26086956521739
103	1257538	449	-nan
103	1257538	450	0.31818181818182
103	1257538	451	0.46428571428571
103	1257538	452	-nan
103	1257538	453	0.52
103	1257538	454	-nan
103	1257538	455	0.33333333333333
103	1257538	456	0.45945945945946
103	1257538	457	-nan
103	1257538	458	0.53846153846154
103	1257538	459	0.42424242424242
103	1257538	460	0.35714285714286
103	1257538	461	0.45454545454545
103	1257538	462	0.33333333333333
103	1257538	463	0.51851851851852
103	1257538	464	0.54054054054054
103	1257538	465	0.3448275862069
103	1257538	466	0.56
103	1257538	467	-nan
103	1257538	468	0.41379310344828
103	1257538	469	-nan
103	1257538	470	-nan
103	1257538	471	0.57142857142857
103	1257538	472	-nan
103	1257538	473	-nan
103	1257538	474	-nan
103	1257538	475	0.125
103	1257538	476	0.35294117647059
103	1257538	477	-nan
103	1257538	478	-nan
103	1257538	479	-nan
103	1257538	480	-nan
103	1257538	481	0.36
103	1257538	482	-nan
103	1257538	483	0.44444444444444
103	1257538	484	-nan
103	1257538	485	0.41666666666667
103	1257538	486	0.37037037037037
103	1257538	487	0.26086956521739
103	1257538	488	0.41935483870968
103	1257538	489	-nan
103	1257538	490	-nan
103	1257538	491	-nan
103	1257538	492	-nan
103	1257538	493	-nan
103	1257538	494	0.375
103	1257538	495	-nan
103	1257538	496	0.33333333333333
103	1257538	497	-nan
103	1257538	498	0.16666666666667
103	1257538	499	-nan
103	1257538	500	0.31818181818182
103	1257538	501	-nan
103	1257538	502	-nan
103	1257538	503	0.30434782608696
103	1257538	504	0.29411764705882
103	1257538	505	0.33333333333333
103	1257538	506	-nan
103	1257538	507	-nan
103	1257538	508	-nan
103	1257538	509	0.56
103	1257538	510	0.38461538461538
103	1257538	511	-nan
103	1257538	512	0.33333333333333
103	1257538	513	0.41379310344828
103	1257538	514	-nan
103	1257538	515	0.41176470588235
103	1257538	516	0.38461538461538
103	1257538	517	0.375
103	1257538	518	-nan
103	1257538	519	0.23076923076923
103	1257538	520	-nan
103	1257538	521	0.45
103	1257538	522	-nan
103	1257538	523	0.33333333333333
103	1257538	524	-nan
103	1257538	525	-nan
103	1257538	526	0.42857142857143
103	1257538	527	0.4
103	1257538	528	-nan
103	1257538	529	0.30434782608696
103	1257538	530	-nan
103	1257538	531	0.31818181818182
103	1257538	532	-nan
103	1257538	533	0.42307692307692
103	1257538	534	0.27777777777778
103	1257538	535	0.30434782608696
103	1257538	536	0.33333333333333
103	1257538	537	-nan
103	1257538	538	-nan
103	1257538	539	0.33333333333333
103	1257538	540	-nan
103	1257538	541	0.29411764705882
103	1257538	542	-nan
103	1257538	543	-nan
103	1257538	544	0.46153846153846
103	1257538	545	-nan
103	1257538	546	0.31818181818182
103	1257538	547	0.30434782608696
103	1257538	548	0.33333333333333
103	1257538	549	0.5625
103	1257538	550	0.10526315789474
103	1257538	551	-nan
103	1257538	552	-nan
103	1257538	553	0.375
103	1257538	554	0.40740740740741
103	1257538	555	0.25
103	1257538	556	0.41666666666667
103	1257538	557	-nan
103	1257538	558	-nan
103	1257538	559	0.27272727272727
103	1257538	560	0.25
103	1257538	561	-nan
103	1257538	562	0.43333333333333
103	1257538	563	-nan
103	1257538	564	-nan
103	1257538	565	-nan
103	1257538	566	-nan
103	1257538	567	-nan
103	1257538	568	-nan
103	1257538	569	-nan
103	1257538	570	-nan
103	1257538	571	-nan
103	1257538	572	-nan
103	1257538	573	-nan
103	1257538	574	0.53571428571429
103	1257538	575	0.4
103	1257538	576	-nan
103	1257538	577	-nan
103	1257538	578	-nan
103	1257538	579	-nan
103	1257538	580	0.21739130434783
103	1257538	581	0.37037037037037
103	1257538	582	-nan
103	1257538	583	0.33333333333333
103	1257538	584	0.3448275862069
103	1257538	585	-nan
103	1257538	586	0.27272727272727
103	1257538	587	-nan
103	1257538	588	0.125
103	1257538	589	-nan
103	1257538	590	0.21052631578947
103	1257538	591	0.23809523809524
103	1257538	592	-nan
103	1257538	593	0.42105263157895
103	1257538	594	0.34615384615385
103	1257538	595	0.1875
103	1257538	596	0.4375
103	1257538	597	0.27272727272727
103	1257538	598	-nan
103	1257538	599	0.4
103	1257538	600	-nan
103	1257538	601	0.3125
103	1257538	602	0.23076923076923
103	1257538	603	-nan
103	1257538	604	-nan
103	1257538	605	-nan
103	1257538	606	-nan
103	1257538	607	0.22222222222222
103	1257538	608	0.33333333333333
103	1257538	609	-nan
103	1257538	610	0.27272727272727
103	1257538	611	-nan