version 2
run General-2-20140408-17:14:59-22544
attr D lce
attr F spr
attr R lru
attr a 1
attr configname General
attr csize 2
attr datetime 20140408-17:14:59
attr experiment General
attr inifile omnetpp.ini
attr iterationvars "$net=simple_scenario, $rep=0, $a=1, $F=spr, $ttl=1000, $D=lce, $R=lru, $csize=2"
attr iterationvars2 "$net=simple_scenario, $rep=0, $a=1, $F=spr, $ttl=1000, $D=lce, $R=lru, $csize=2, $repetition=0"
attr measurement "$net=simple_scenario, $rep=0, $a=1, $F=spr, $ttl=1000, $D=lce, $R=lru, $csize=2"
attr net simple_scenario
attr network networks.${net=simple_scenario}_network
attr processid 22544
attr rep 0
attr repetition 0
attr replication #0
attr resultdir results
attr runnumber 2
attr seedset 0
attr ttl 1000

vector 12  simple_scenario_network.node[0].content_store  hit_node[0]  ETV
12	43034	1	0.15384615384615
12	43034	2	0
12	43034	3	0
12	43034	4	0
12	43034	5	0
12	43034	6	0
12	43034	7	0
12	43034	8	0
12	43034	9	-nan
12	43034	10	0
12	43034	11	0
12	43034	12	0
12	43034	13	0
12	43034	14	-nan
12	43034	15	-nan
12	43034	16	-nan
12	43034	17	-nan
12	43034	18	0
12	43034	19	-nan
12	43034	20	0
12	43034	21	-nan
12	43034	22	0
12	43034	23	0
12	43034	24	-nan
12	43034	25	-nan
12	43034	26	0
12	43034	27	-nan
12	43034	28	0
12	43034	29	-nan
12	43034	30	0
12	43034	31	-nan
12	43034	32	0
12	43034	33	-nan
12	43034	34	-nan
12	43034	35	-nan
12	43034	36	0
12	43034	37	-nan
12	43034	38	-nan
12	43034	39	-nan
12	43034	40	-nan
12	43034	41	0
12	43034	42	-nan
12	43034	43	-nan
12	43034	44	-nan
12	43034	45	-nan
12	43034	46	0
12	43034	47	-nan
12	43034	48	-nan
12	43034	49	-nan
12	43034	50	-nan
12	43034	51	-nan
12	43034	52	-nan
12	43034	53	0
12	43034	54	-nan
12	43034	55	-nan
12	43034	56	-nan
12	43034	57	-nan
12	43034	58	-nan
12	43034	59	-nan
12	43034	60	0
12	43034	61	-nan
12	43034	62	-nan
12	43034	63	-nan
12	43034	64	-nan
12	43034	65	0
12	43034	66	-nan
12	43034	67	-nan
12	43034	68	-nan
12	43034	69	-nan
12	43034	70	-nan
12	43034	71	-nan
12	43034	72	-nan
12	43034	73	-nan
12	43034	74	-nan
12	43034	75	-nan
12	43034	76	-nan
vector 13  simple_scenario_network.node[1].content_store  hit_node[1]  ETV
13	43034	1	0.36363636363636
13	43034	2	-nan
13	43034	3	-nan
13	43034	4	0
13	43034	5	-nan
13	43034	6	-nan
13	43034	7	-nan
13	43034	8	-nan
13	43034	9	-nan
13	43034	10	-nan
13	43034	11	-nan
13	43034	12	0
13	43034	13	0
13	43034	14	-nan
13	43034	15	-nan
13	43034	16	-nan
13	43034	17	-nan
13	43034	18	0
13	43034	19	-nan
13	43034	20	-nan
13	43034	21	-nan
13	43034	22	-nan
13	43034	23	-nan
13	43034	24	-nan
13	43034	25	-nan
13	43034	26	-nan
13	43034	27	-nan
13	43034	28	-nan
13	43034	29	-nan
13	43034	30	0
13	43034	31	-nan
13	43034	32	0.33333333333333
13	43034	33	-nan
13	43034	34	-nan
13	43034	35	-nan
13	43034	36	-nan
13	43034	37	-nan
13	43034	38	-nan
13	43034	39	-nan
13	43034	40	-nan
13	43034	41	0
13	43034	42	-nan
13	43034	43	-nan
13	43034	44	-nan
13	43034	45	-nan
13	43034	46	-nan
13	43034	47	-nan
13	43034	48	-nan
13	43034	49	-nan
13	43034	50	-nan
13	43034	51	-nan
13	43034	52	-nan
13	43034	53	-nan
13	43034	54	-nan
13	43034	55	-nan
13	43034	56	-nan
13	43034	57	-nan
13	43034	58	-nan
13	43034	59	-nan
13	43034	60	-nan
13	43034	61	-nan
13	43034	62	-nan
13	43034	63	-nan
13	43034	64	-nan
13	43034	65	-nan
13	43034	66	-nan
13	43034	67	-nan
13	43034	68	-nan
13	43034	69	-nan
13	43034	70	-nan
13	43034	71	-nan
13	43034	72	-nan
13	43034	73	-nan
13	43034	74	-nan
13	43034	75	-nan
13	43034	76	-nan
vector 14  simple_scenario_network.node[2].content_store  hit_node[2]  ETV
14	43034	1	-nan
14	43034	2	0
14	43034	3	0
14	43034	4	-nan
14	43034	5	0
14	43034	6	0
14	43034	7	0
14	43034	8	0
14	43034	9	-nan
14	43034	10	0
14	43034	11	0
14	43034	12	-nan
14	43034	13	-nan
14	43034	14	-nan
14	43034	15	-nan
14	43034	16	-nan
14	43034	17	-nan
14	43034	18	-nan
14	43034	19	-nan
14	43034	20	0
14	43034	21	-nan
14	43034	22	0
14	43034	23	0
14	43034	24	-nan
14	43034	25	-nan
14	43034	26	0
14	43034	27	-nan
14	43034	28	0
14	43034	29	-nan
14	43034	30	-nan
14	43034	31	-nan
14	43034	32	-nan
14	43034	33	-nan
14	43034	34	-nan
14	43034	35	-nan
14	43034	36	0
14	43034	37	-nan
14	43034	38	-nan
14	43034	39	-nan
14	43034	40	-nan
14	43034	41	-nan
14	43034	42	-nan
14	43034	43	-nan
14	43034	44	-nan
14	43034	45	-nan
14	43034	46	0
14	43034	47	-nan
14	43034	48	-nan
14	43034	49	-nan
14	43034	50	-nan
14	43034	51	-nan
14	43034	52	-nan
14	43034	53	0
14	43034	54	-nan
14	43034	55	-nan
14	43034	56	-nan
14	43034	57	-nan
14	43034	58	-nan
14	43034	59	-nan
14	43034	60	0
14	43034	61	-nan
14	43034	62	-nan
14	43034	63	-nan
14	43034	64	-nan
14	43034	65	0
14	43034	66	-nan
14	43034	67	-nan
14	43034	68	-nan
14	43034	69	-nan
14	43034	70	-nan
14	43034	71	-nan
14	43034	72	-nan
14	43034	73	-nan
14	43034	74	-nan
14	43034	75	-nan
14	43034	76	-nan
vector 15  simple_scenario_network.node[3].content_store  hit_node[3]  ETV
15	43034	1	0
15	43034	2	-nan
15	43034	3	-nan
15	43034	4	0
15	43034	5	-nan
15	43034	6	-nan
15	43034	7	-nan
15	43034	8	-nan
15	43034	9	-nan
15	43034	10	-nan
15	43034	11	-nan
15	43034	12	0
15	43034	13	0
15	43034	14	-nan
15	43034	15	-nan
15	43034	16	-nan
15	43034	17	-nan
15	43034	18	0
15	43034	19	-nan
15	43034	20	-nan
15	43034	21	-nan
15	43034	22	-nan
15	43034	23	-nan
15	43034	24	-nan
15	43034	25	-nan
15	43034	26	-nan
15	43034	27	-nan
15	43034	28	-nan
15	43034	29	-nan
15	43034	30	0
15	43034	31	-nan
15	43034	32	0
15	43034	33	-nan
15	43034	34	-nan
15	43034	35	-nan
15	43034	36	-nan
15	43034	37	-nan
15	43034	38	-nan
15	43034	39	-nan
15	43034	40	-nan
15	43034	41	0
15	43034	42	-nan
15	43034	43	-nan
15	43034	44	-nan
15	43034	45	-nan
15	43034	46	-nan
15	43034	47	-nan
15	43034	48	-nan
15	43034	49	-nan
15	43034	50	-nan
15	43034	51	-nan
15	43034	52	-nan
15	43034	53	-nan
15	43034	54	-nan
15	43034	55	-nan
15	43034	56	-nan
15	43034	57	-nan
15	43034	58	-nan
15	43034	59	-nan
15	43034	60	-nan
15	43034	61	-nan
15	43034	62	-nan
15	43034	63	-nan
15	43034	64	-nan
15	43034	65	-nan
15	43034	66	-nan
15	43034	67	-nan
15	43034	68	-nan
15	43034	69	-nan
15	43034	70	-nan
15	43034	71	-nan
15	43034	72	-nan
15	43034	73	-nan
15	43034	74	-nan
15	43034	75	-nan
15	43034	76	-nan
vector 16  simple_scenario_network.node[4].content_store  hit_node[4]  ETV
16	43034	1	-nan
16	43034	2	0
16	43034	3	0
16	43034	4	-nan
16	43034	5	0
16	43034	6	0
16	43034	7	0
16	43034	8	0
16	43034	9	-nan
16	43034	10	0
16	43034	11	0
16	43034	12	-nan
16	43034	13	-nan
16	43034	14	-nan
16	43034	15	-nan
16	43034	16	-nan
16	43034	17	-nan
16	43034	18	-nan
16	43034	19	-nan
16	43034	20	0
16	43034	21	-nan
16	43034	22	0
16	43034	23	0
16	43034	24	-nan
16	43034	25	-nan
16	43034	26	0
16	43034	27	-nan
16	43034	28	0
16	43034	29	-nan
16	43034	30	-nan
16	43034	31	-nan
16	43034	32	-nan
16	43034	33	-nan
16	43034	34	-nan
16	43034	35	-nan
16	43034	36	0
16	43034	37	-nan
16	43034	38	-nan
16	43034	39	-nan
16	43034	40	-nan
16	43034	41	-nan
16	43034	42	-nan
16	43034	43	-nan
16	43034	44	-nan
16	43034	45	-nan
16	43034	46	0
16	43034	47	-nan
16	43034	48	-nan
16	43034	49	-nan
16	43034	50	-nan
16	43034	51	-nan
16	43034	52	-nan
16	43034	53	0
16	43034	54	-nan
16	43034	55	-nan
16	43034	56	-nan
16	43034	57	-nan
16	43034	58	-nan
16	43034	59	-nan
16	43034	60	0
16	43034	61	-nan
16	43034	62	-nan
16	43034	63	-nan
16	43034	64	-nan
16	43034	65	0
16	43034	66	-nan
16	43034	67	-nan
16	43034	68	-nan
16	43034	69	-nan
16	43034	70	-nan
16	43034	71	-nan
16	43034	72	-nan
16	43034	73	-nan
16	43034	74	-nan
16	43034	75	-nan
16	43034	76	-nan
vector 17  simple_scenario_network.client[0]  hdistance[0]  ETV
17	43034	1	2.625641025641
17	43034	2	2.948275862069
17	43034	3	2.9622641509434
17	43034	4	3
17	43034	5	2.9207920792079
17	43034	6	2.9230769230769
17	43034	7	3
17	43034	8	3
17	43034	9	0
17	43034	10	2.92
17	43034	11	2.8974358974359
17	43034	12	2.9420289855072
17	43034	13	3
17	43034	14	0
17	43034	15	0
17	43034	16	0
17	43034	17	0
17	43034	18	2.9722222222222
17	43034	19	0
17	43034	20	3
17	43034	21	0
17	43034	22	3
17	43034	23	3
17	43034	24	0
17	43034	25	0
17	43034	26	3
17	43034	27	0
17	43034	28	3
17	43034	29	0
17	43034	30	3
17	43034	31	0
17	43034	32	2.8984126984127
17	43034	33	0
17	43034	34	0
17	43034	35	0
17	43034	36	3
17	43034	37	0
17	43034	38	0
17	43034	39	0
17	43034	40	0
17	43034	41	3
17	43034	42	0
17	43034	43	0
17	43034	44	0
17	43034	45	0
17	43034	46	3
17	43034	47	0
17	43034	48	0
17	43034	49	0
17	43034	50	0
17	43034	51	0
17	43034	52	0
17	43034	53	3
17	43034	54	0
17	43034	55	0
17	43034	56	0
17	43034	57	0
17	43034	58	0
17	43034	59	0
17	43034	60	3
17	43034	61	0
17	43034	62	0
17	43034	63	0
17	43034	64	0
17	43034	65	3
17	43034	66	0
17	43034	67	0
17	43034	68	0
17	43034	69	0
17	43034	70	0
17	43034	71	0
17	43034	72	0
17	43034	73	0
17	43034	74	0
17	43034	75	0
17	43034	76	0
