version 2
run General-8-20150311-18:59:37-28961
attr D lce
attr F spr
attr R lru
attr a 0.7
attr configname General
attr datetime 20150311-18:59:37
attr experiment General
attr inifile omnetpp.ini
attr iterationvars "$net=abilene, $rep=0, $a=0.7, $F=spr, $ttl=1000, $D=lce, $R=lru"
attr iterationvars2 "$net=abilene, $rep=0, $a=0.7, $F=spr, $ttl=1000, $D=lce, $R=lru, $repetition=0"
attr measurement "$net=abilene, $rep=0, $a=0.7, $F=spr, $ttl=1000, $D=lce, $R=lru"
attr net abilene
attr network networks.${net=abilene}_network
attr processid 28961
attr rep 0
attr repetition 0
attr replication #0
attr resultdir results
attr runnumber 8
attr seedset 0
attr ttl 1000

vector 0  abilene_network.node[0].content_store  hit_node[0]  ETV
0	402169	1	0.88571428571429
0	402169	2	0.68181818181818
0	402169	3	0.61538461538462
0	402169	4	0.30769230769231
0	402169	5	0.28571428571429
0	402169	6	0.57142857142857
0	402169	7	0.46666666666667
0	402169	8	0
0	402169	9	0.33333333333333
0	402169	10	0.33333333333333
0	402169	11	0.42857142857143
0	402169	12	0
0	402169	13	0.28571428571429
0	402169	14	0.33333333333333
0	402169	15	0
0	402169	16	0.25
0	402169	17	0
0	402169	18	0.55555555555556
0	402169	19	0.2
0	402169	20	0.33333333333333
0	402169	21	0.66666666666667
0	402169	22	0
0	402169	23	0.5
0	402169	24	0.33333333333333
0	402169	25	0.33333333333333
0	402169	26	0.33333333333333
0	402169	27	0
0	402169	28	0
0	402169	29	0.2
0	402169	30	0
0	402169	31	0
0	402169	32	0
0	402169	33	0
0	402169	34	0
0	402169	35	0.42857142857143
0	402169	36	0
0	402169	37	0.33333333333333
0	402169	38	0.33333333333333
0	402169	39	-nan
0	402169	40	0.33333333333333
0	402169	41	0
0	402169	42	0
0	402169	43	0
0	402169	44	0.2
0	402169	45	0
0	402169	46	0
0	402169	47	0
0	402169	48	0
0	402169	49	0.33333333333333
0	402169	50	0.33333333333333
0	402169	51	0
0	402169	52	-nan
0	402169	53	-nan
0	402169	54	0.25
0	402169	55	-nan
0	402169	56	0
0	402169	57	0
0	402169	58	0
0	402169	59	0
0	402169	60	0.33333333333333
0	402169	61	0
0	402169	62	0
0	402169	63	0.2
0	402169	64	0
0	402169	65	0
0	402169	66	0
0	402169	67	0
0	402169	68	0
0	402169	69	0
0	402169	70	0
0	402169	71	0.33333333333333
0	402169	72	0
0	402169	73	0
0	402169	74	-nan
0	402169	75	0
0	402169	76	0
0	402169	77	0
0	402169	78	0
0	402169	79	-nan
0	402169	80	0
0	402169	81	0.5
0	402169	82	0
0	402169	83	-nan
0	402169	84	-nan
0	402169	85	0
0	402169	86	0.5
0	402169	87	0.5
0	402169	88	0
0	402169	89	0
0	402169	90	0
0	402169	91	0
0	402169	92	0.33333333333333
0	402169	93	0
0	402169	94	-nan
0	402169	95	0
0	402169	96	0
0	402169	97	0.5
0	402169	98	0
0	402169	99	0
0	402169	100	-nan
0	402169	101	0
0	402169	102	-nan
0	402169	103	-nan
0	402169	104	0
0	402169	105	0
0	402169	106	0
0	402169	107	0
0	402169	108	0.33333333333333
0	402169	109	0
0	402169	110	-nan
0	402169	111	0.2
0	402169	112	0
0	402169	113	0.25
0	402169	114	0
0	402169	115	0
0	402169	116	-nan
0	402169	117	0
0	402169	118	-nan
0	402169	119	-nan
0	402169	120	0
0	402169	121	-nan
0	402169	122	0
0	402169	123	0
0	402169	124	-nan
0	402169	125	-nan
0	402169	126	0
0	402169	127	-nan
0	402169	128	0
0	402169	129	-nan
0	402169	130	0
0	402169	131	-nan
0	402169	132	0
0	402169	133	0
0	402169	134	0
0	402169	135	-nan
0	402169	136	-nan
0	402169	137	-nan
0	402169	138	-nan
0	402169	139	-nan
0	402169	140	0
0	402169	141	0
0	402169	142	0
0	402169	143	-nan
0	402169	144	0
0	402169	145	-nan
0	402169	146	-nan
0	402169	147	0.5
0	402169	148	-nan
0	402169	149	-nan
0	402169	150	-nan
0	402169	151	-nan
0	402169	152	0
0	402169	153	-nan
0	402169	154	-nan
0	402169	155	0
0	402169	156	0
0	402169	157	-nan
0	402169	158	0
0	402169	159	-nan
0	402169	160	0.33333333333333
0	402169	161	-nan
0	402169	162	-nan
0	402169	163	0
0	402169	164	0
0	402169	165	0
0	402169	166	0.5
0	402169	167	0
0	402169	168	0
0	402169	169	0
0	402169	170	0
0	402169	171	0
0	402169	172	0
0	402169	173	0
0	402169	174	-nan
0	402169	175	-nan
0	402169	176	0
0	402169	177	0
0	402169	178	0
0	402169	179	-nan
0	402169	180	-nan
0	402169	181	0
0	402169	182	-nan
0	402169	183	0
0	402169	184	0.25
0	402169	185	0
0	402169	186	0
0	402169	187	0
0	402169	188	0
0	402169	189	0
0	402169	190	0
0	402169	191	0
0	402169	192	-nan
0	402169	193	0
0	402169	194	0
0	402169	195	0.2
0	402169	196	-nan
0	402169	197	0
0	402169	198	0
0	402169	199	0
0	402169	200	-nan
0	402169	201	0
0	402169	202	0
0	402169	203	-nan
0	402169	204	-nan
0	402169	205	0
0	402169	206	-nan
0	402169	207	-nan
0	402169	208	0
0	402169	209	-nan
0	402169	210	0
0	402169	211	-nan
0	402169	212	0
0	402169	213	-nan
0	402169	214	-nan
0	402169	215	0
0	402169	216	0.5
0	402169	217	-nan
0	402169	218	0
0	402169	219	-nan
0	402169	220	0
0	402169	221	0
0	402169	222	0
0	402169	223	0
0	402169	224	-nan
0	402169	225	0.33333333333333
0	402169	226	-nan
0	402169	227	-nan
0	402169	228	-nan
0	402169	229	-nan
0	402169	230	0.5
0	402169	231	-nan
0	402169	232	-nan
0	402169	233	0
0	402169	234	0
0	402169	235	0
0	402169	236	-nan
0	402169	237	-nan
0	402169	238	0
0	402169	239	0.25
0	402169	240	0
0	402169	241	-nan
0	402169	242	0
0	402169	243	-nan
0	402169	244	0
0	402169	245	0
0	402169	246	-nan
0	402169	247	0
0	402169	248	0.5
0	402169	249	-nan
0	402169	250	0
0	402169	251	0
0	402169	252	-nan
0	402169	253	0
0	402169	254	0
0	402169	255	-nan
0	402169	256	0
0	402169	257	0
0	402169	258	-nan
0	402169	259	-nan
0	402169	260	0
0	402169	261	0
0	402169	262	-nan
0	402169	263	-nan
0	402169	264	0
0	402169	265	0
0	402169	266	0
0	402169	267	0
0	402169	268	-nan
0	402169	269	0
0	402169	270	-nan
0	402169	271	-nan
0	402169	272	0
0	402169	273	0
0	402169	274	-nan
0	402169	275	-nan
0	402169	276	0
0	402169	277	-nan
0	402169	278	-nan
0	402169	279	-nan
0	402169	280	-nan
0	402169	281	0
0	402169	282	0
0	402169	283	-nan
0	402169	284	0
0	402169	285	-nan
0	402169	286	0
0	402169	287	-nan
0	402169	288	-nan
0	402169	289	-nan
0	402169	290	0
0	402169	291	0
0	402169	292	-nan
0	402169	293	0
0	402169	294	-nan
0	402169	295	0
0	402169	296	-nan
0	402169	297	-nan
0	402169	298	-nan
0	402169	299	0
0	402169	300	0
0	402169	301	0
0	402169	302	-nan
0	402169	303	0
0	402169	304	0
0	402169	305	-nan
0	402169	306	0
0	402169	307	-nan
0	402169	308	-nan
0	402169	309	0
0	402169	310	-nan
0	402169	311	0.5
0	402169	312	0
0	402169	313	0
0	402169	314	-nan
0	402169	315	-nan
0	402169	316	-nan
0	402169	317	0
0	402169	318	-nan
0	402169	319	0
0	402169	320	-nan
0	402169	321	0
0	402169	322	0
0	402169	323	-nan
0	402169	324	0
0	402169	325	-nan
0	402169	326	0
0	402169	327	-nan
0	402169	328	0
0	402169	329	-nan
0	402169	330	-nan
0	402169	331	0
0	402169	332	-nan
0	402169	333	-nan
0	402169	334	-nan
0	402169	335	-nan
0	402169	336	-nan
0	402169	337	-nan
0	402169	338	-nan
0	402169	339	-nan
0	402169	340	-nan
0	402169	341	-nan
0	402169	342	-nan
0	402169	343	-nan
0	402169	344	0
0	402169	345	-nan
0	402169	346	0
0	402169	347	-nan
0	402169	348	0
0	402169	349	0
0	402169	350	-nan
0	402169	351	-nan
0	402169	352	0
0	402169	353	0
0	402169	354	0
0	402169	355	-nan
0	402169	356	-nan
0	402169	357	-nan
0	402169	358	0
0	402169	359	-nan
0	402169	360	-nan
0	402169	361	-nan
0	402169	362	0
0	402169	363	0
0	402169	364	-nan
0	402169	365	-nan
0	402169	366	-nan
0	402169	367	-nan
0	402169	368	0
0	402169	369	0
0	402169	370	0
0	402169	371	-nan
0	402169	372	0
0	402169	373	0
0	402169	374	-nan
0	402169	375	-nan
0	402169	376	-nan
0	402169	377	-nan
0	402169	378	-nan
0	402169	379	0
0	402169	380	-nan
0	402169	381	0
0	402169	382	-nan
0	402169	383	0
0	402169	384	0
0	402169	385	-nan
0	402169	386	-nan
0	402169	387	-nan
0	402169	388	-nan
0	402169	389	0
0	402169	390	-nan
0	402169	391	-nan
0	402169	392	-nan
0	402169	393	-nan
0	402169	394	-nan
0	402169	395	-nan
0	402169	396	0
0	402169	397	0
0	402169	398	-nan
0	402169	399	0
0	402169	400	0
0	402169	401	-nan
0	402169	402	-nan
0	402169	403	-nan
0	402169	404	-nan
0	402169	405	-nan
0	402169	406	0
0	402169	407	-nan
0	402169	408	-nan
0	402169	409	-nan
0	402169	410	-nan
0	402169	411	-nan
0	402169	412	-nan
0	402169	413	-nan
0	402169	414	-nan
0	402169	415	0
0	402169	416	-nan
0	402169	417	-nan
0	402169	418	0
0	402169	419	-nan
0	402169	420	-nan
0	402169	421	0
0	402169	422	-nan
0	402169	423	0.33333333333333
0	402169	424	0
0	402169	425	0
0	402169	426	-nan
0	402169	427	-nan
0	402169	428	0
0	402169	429	0
0	402169	430	0
0	402169	431	0
0	402169	432	-nan
0	402169	433	0
0	402169	434	-nan
0	402169	435	-nan
0	402169	436	-nan
0	402169	437	-nan
0	402169	438	0
0	402169	439	0
0	402169	440	0
0	402169	441	-nan
0	402169	442	-nan
0	402169	443	-nan
0	402169	444	-nan
0	402169	445	-nan
0	402169	446	-nan
0	402169	447	-nan
0	402169	448	-nan
0	402169	449	-nan
0	402169	450	-nan
0	402169	451	-nan
0	402169	452	-nan
0	402169	453	0
0	402169	454	0
0	402169	455	-nan
0	402169	456	-nan
0	402169	457	0
0	402169	458	0
0	402169	459	0
0	402169	460	-nan
0	402169	461	0
0	402169	462	-nan
0	402169	463	-nan
0	402169	464	-nan
0	402169	465	-nan
0	402169	466	0
0	402169	467	-nan
0	402169	468	-nan
0	402169	469	0
0	402169	470	-nan
0	402169	471	-nan
0	402169	472	-nan
0	402169	473	-nan
0	402169	474	-nan
0	402169	475	0
0	402169	476	-nan
0	402169	477	-nan
0	402169	478	0
0	402169	479	-nan
0	402169	480	-nan
0	402169	481	0
0	402169	482	-nan
0	402169	483	0
0	402169	484	-nan
0	402169	485	0
0	402169	486	-nan
0	402169	487	-nan
0	402169	488	0
0	402169	489	-nan
0	402169	490	-nan
0	402169	491	-nan
0	402169	492	-nan
0	402169	493	-nan
0	402169	494	0
0	402169	495	-nan
0	402169	496	-nan
0	402169	497	-nan
0	402169	498	0
0	402169	499	-nan
0	402169	500	-nan
0	402169	501	-nan
0	402169	502	-nan
0	402169	503	0
0	402169	504	-nan
0	402169	505	-nan
0	402169	506	-nan
0	402169	507	-nan
0	402169	508	-nan
0	402169	509	0
0	402169	510	0
0	402169	511	-nan
0	402169	512	0.25
0	402169	513	-nan
0	402169	514	-nan
0	402169	515	-nan
0	402169	516	0
0	402169	517	-nan
0	402169	518	-nan
0	402169	519	0
0	402169	520	0
0	402169	521	0.33333333333333
0	402169	522	0
0	402169	523	-nan
0	402169	524	-nan
0	402169	525	0
0	402169	526	-nan
0	402169	527	0
0	402169	528	0
0	402169	529	-nan
0	402169	530	-nan
0	402169	531	-nan
0	402169	532	0
0	402169	533	0
0	402169	534	0
0	402169	535	0
0	402169	536	0
0	402169	537	-nan
0	402169	538	0
0	402169	539	-nan
0	402169	540	-nan
0	402169	541	-nan
0	402169	542	0
0	402169	543	0
0	402169	544	-nan
0	402169	545	-nan
0	402169	546	0
0	402169	547	-nan
0	402169	548	-nan
0	402169	549	-nan
0	402169	550	-nan
0	402169	551	-nan
0	402169	552	0
0	402169	553	0
0	402169	554	0
0	402169	555	0
0	402169	556	-nan
0	402169	557	-nan
0	402169	558	-nan
0	402169	559	-nan
0	402169	560	-nan
0	402169	561	0
0	402169	562	-nan
0	402169	563	-nan
0	402169	564	0
0	402169	565	-nan
0	402169	566	-nan
0	402169	567	0
0	402169	568	-nan
0	402169	569	-nan
0	402169	570	-nan
0	402169	571	0
0	402169	572	-nan
0	402169	573	0
0	402169	574	0
0	402169	575	-nan
0	402169	576	-nan
0	402169	577	-nan
0	402169	578	-nan
0	402169	579	0
0	402169	580	-nan
0	402169	581	0
0	402169	582	0
0	402169	583	0
0	402169	584	-nan
0	402169	585	-nan
0	402169	586	-nan
0	402169	587	-nan
0	402169	588	0
0	402169	589	0
0	402169	590	0
0	402169	591	-nan
0	402169	592	-nan
0	402169	593	-nan
0	402169	594	-nan
0	402169	595	0
0	402169	596	-nan
0	402169	597	-nan
0	402169	598	-nan
0	402169	599	-nan
0	402169	600	-nan
0	402169	601	-nan
0	402169	602	0
0	402169	603	0
0	402169	604	0
0	402169	605	-nan
0	402169	606	0
0	402169	607	-nan
0	402169	608	0
0	402169	609	-nan
0	402169	610	-nan
0	402169	611	-nan
0	402169	612	-nan
0	402169	613	-nan
0	402169	614	-nan
0	402169	615	-nan
0	402169	616	-nan
0	402169	617	0
0	402169	618	0
0	402169	619	0
0	402169	620	0
0	402169	621	-nan
0	402169	622	-nan
0	402169	623	-nan
0	402169	624	0
0	402169	625	0
0	402169	626	-nan
0	402169	627	0
0	402169	628	0
0	402169	629	0
0	402169	630	0
0	402169	631	0
0	402169	632	0
0	402169	633	0
0	402169	634	-nan
0	402169	635	0
0	402169	636	-nan
0	402169	637	-nan
0	402169	638	-nan
0	402169	639	0
0	402169	640	-nan
0	402169	641	0
0	402169	642	0
0	402169	643	-nan
0	402169	644	0
0	402169	645	0
0	402169	646	-nan
0	402169	647	-nan
0	402169	648	-nan
0	402169	649	-nan
0	402169	650	0
0	402169	651	0
0	402169	652	-nan
0	402169	653	0
0	402169	654	-nan
0	402169	655	-nan
0	402169	656	-nan
0	402169	657	0
0	402169	658	-nan
0	402169	659	-nan
0	402169	660	-nan
0	402169	661	-nan
0	402169	662	-nan
0	402169	663	-nan
0	402169	664	-nan
0	402169	665	0
0	402169	666	-nan
0	402169	667	-nan
0	402169	668	0
0	402169	669	-nan
0	402169	670	0
0	402169	671	0
0	402169	672	-nan
0	402169	673	-nan
0	402169	674	-nan
0	402169	675	-nan
0	402169	676	-nan
0	402169	677	0
0	402169	678	-nan
0	402169	679	0
0	402169	680	-nan
0	402169	681	0.5
0	402169	682	-nan
0	402169	683	-nan
0	402169	684	-nan
0	402169	685	-nan
0	402169	686	0
0	402169	687	0
0	402169	688	-nan
0	402169	689	-nan
0	402169	690	-nan
0	402169	691	-nan
0	402169	692	0
0	402169	693	0
0	402169	694	-nan
0	402169	695	-nan
0	402169	696	0.5
0	402169	697	-nan
0	402169	698	0
0	402169	699	-nan
0	402169	700	0
0	402169	701	0
0	402169	702	-nan
0	402169	703	0
0	402169	704	0
0	402169	705	-nan
0	402169	706	0
0	402169	707	0
0	402169	708	-nan
0	402169	709	-nan
0	402169	710	-nan
0	402169	711	-nan
0	402169	712	-nan
0	402169	713	-nan
0	402169	714	-nan
0	402169	715	-nan
0	402169	716	-nan
0	402169	717	0
0	402169	718	-nan
0	402169	719	0
0	402169	720	0
0	402169	721	-nan
0	402169	722	-nan
0	402169	723	-nan
0	402169	724	-nan
0	402169	725	-nan
0	402169	726	0
0	402169	727	-nan
0	402169	728	-nan
0	402169	729	0
0	402169	730	-nan
0	402169	731	-nan
0	402169	732	0
0	402169	733	-nan
0	402169	734	0
0	402169	735	-nan
0	402169	736	-nan
0	402169	737	-nan
0	402169	738	-nan
0	402169	739	0
0	402169	740	-nan
0	402169	741	-nan
0	402169	742	-nan
0	402169	743	-nan
0	402169	744	0
0	402169	745	-nan
0	402169	746	0
0	402169	747	-nan
0	402169	748	-nan
0	402169	749	-nan
0	402169	750	-nan
0	402169	751	-nan
0	402169	752	-nan
0	402169	753	0
0	402169	754	-nan
0	402169	755	0
0	402169	756	-nan
0	402169	757	-nan
0	402169	758	0
0	402169	759	0
0	402169	760	-nan
0	402169	761	-nan
0	402169	762	-nan
0	402169	763	0
0	402169	764	-nan
0	402169	765	-nan
0	402169	766	-nan
0	402169	767	-nan
0	402169	768	-nan
0	402169	769	0
0	402169	770	0
0	402169	771	-nan
0	402169	772	-nan
0	402169	773	-nan
0	402169	774	0
0	402169	775	-nan
0	402169	776	-nan
0	402169	777	-nan
0	402169	778	-nan
0	402169	779	-nan
0	402169	780	0
0	402169	781	0
0	402169	782	-nan
0	402169	783	-nan
0	402169	784	-nan
0	402169	785	0
0	402169	786	0
0	402169	787	-nan
0	402169	788	0
0	402169	789	-nan
0	402169	790	-nan
0	402169	791	-nan
0	402169	792	0
0	402169	793	0
0	402169	794	-nan
0	402169	795	-nan
0	402169	796	0
0	402169	797	-nan
0	402169	798	-nan
0	402169	799	0
0	402169	800	-nan
0	402169	801	-nan
0	402169	802	-nan
0	402169	803	-nan
0	402169	804	0
0	402169	805	0
0	402169	806	0
0	402169	807	-nan
0	402169	808	0
0	402169	809	-nan
0	402169	810	-nan
0	402169	811	-nan
0	402169	812	-nan
0	402169	813	-nan
0	402169	814	-nan
0	402169	815	-nan
0	402169	816	-nan
0	402169	817	-nan
0	402169	818	-nan
0	402169	819	-nan
0	402169	820	-nan
0	402169	821	-nan
0	402169	822	-nan
0	402169	823	-nan
0	402169	824	-nan
0	402169	825	0
0	402169	826	-nan
0	402169	827	-nan
0	402169	828	-nan
0	402169	829	0
0	402169	830	0
0	402169	831	-nan
0	402169	832	-nan
0	402169	833	-nan
0	402169	834	-nan
0	402169	835	-nan
0	402169	836	-nan
0	402169	837	0
0	402169	838	0
0	402169	839	-nan
0	402169	840	-nan
0	402169	841	-nan
0	402169	842	-nan
0	402169	843	-nan
0	402169	844	-nan
0	402169	845	-nan
0	402169	846	-nan
0	402169	847	-nan
0	402169	848	-nan
0	402169	849	-nan
0	402169	850	-nan
0	402169	851	-nan
0	402169	852	-nan
0	402169	853	-nan
0	402169	854	-nan
0	402169	855	0
0	402169	856	-nan
0	402169	857	0
0	402169	858	-nan
0	402169	859	-nan
0	402169	860	0
0	402169	861	-nan
0	402169	862	-nan
0	402169	863	-nan
0	402169	864	0
0	402169	865	-nan
0	402169	866	0
0	402169	867	-nan
0	402169	868	-nan
0	402169	869	0
0	402169	870	0
0	402169	871	-nan
0	402169	872	-nan
0	402169	873	-nan
0	402169	874	-nan
0	402169	875	-nan
0	402169	876	-nan
0	402169	877	0
0	402169	878	-nan
0	402169	879	-nan
0	402169	880	-nan
0	402169	881	-nan
0	402169	882	-nan
0	402169	883	-nan
0	402169	884	-nan
0	402169	885	-nan
0	402169	886	-nan
0	402169	887	0
0	402169	888	-nan
0	402169	889	-nan
0	402169	890	0
0	402169	891	-nan
0	402169	892	-nan
0	402169	893	0
0	402169	894	-nan
0	402169	895	-nan
0	402169	896	0
0	402169	897	-nan
0	402169	898	-nan
0	402169	899	-nan
0	402169	900	-nan
0	402169	901	-nan
0	402169	902	-nan
0	402169	903	-nan
0	402169	904	0
0	402169	905	0
0	402169	906	0
0	402169	907	-nan
0	402169	908	-nan
0	402169	909	0
0	402169	910	-nan
0	402169	911	-nan
0	402169	912	-nan
0	402169	913	-nan
0	402169	914	-nan
0	402169	915	0
0	402169	916	-nan
0	402169	917	-nan
0	402169	918	-nan
0	402169	919	-nan
0	402169	920	-nan
0	402169	921	-nan
0	402169	922	-nan
0	402169	923	-nan
0	402169	924	0
0	402169	925	-nan
0	402169	926	0
0	402169	927	-nan
0	402169	928	-nan
0	402169	929	0.5
0	402169	930	-nan
0	402169	931	-nan
0	402169	932	-nan
0	402169	933	-nan
0	402169	934	0
0	402169	935	-nan
0	402169	936	-nan
0	402169	937	-nan
0	402169	938	-nan
0	402169	939	0
0	402169	940	0
0	402169	941	-nan
0	402169	942	-nan
0	402169	943	0
0	402169	944	-nan
0	402169	945	0
0	402169	946	-nan
0	402169	947	-nan
0	402169	948	0
0	402169	949	0
0	402169	950	0
0	402169	951	-nan
0	402169	952	-nan
0	402169	953	-nan
0	402169	954	-nan
0	402169	955	0
0	402169	956	0
0	402169	957	-nan
0	402169	958	-nan
0	402169	959	-nan
0	402169	960	-nan
0	402169	961	0
0	402169	962	0
0	402169	963	-nan
0	402169	964	-nan
0	402169	965	0
0	402169	966	-nan
0	402169	967	-nan
0	402169	968	-nan
0	402169	969	-nan
0	402169	970	-nan
0	402169	971	-nan
0	402169	972	-nan
0	402169	973	-nan
0	402169	974	0
0	402169	975	-nan
0	402169	976	0
0	402169	977	-nan
0	402169	978	0
0	402169	979	0
0	402169	980	0
0	402169	981	-nan
0	402169	982	0
0	402169	983	-nan
0	402169	984	-nan
0	402169	985	-nan
0	402169	986	-nan
0	402169	987	-nan
0	402169	988	0
0	402169	989	-nan
0	402169	990	-nan
0	402169	991	0
0	402169	992	-nan
0	402169	993	-nan
0	402169	994	-nan
0	402169	995	-nan
0	402169	996	-nan
0	402169	997	-nan
0	402169	998	-nan
0	402169	999	-nan
0	402169	1000	0
0	402169	1001	-nan
0	402169	1002	-nan
0	402169	1003	-nan
0	402169	1004	-nan
0	402169	1005	-nan
0	402169	1006	0
0	402169	1007	-nan
0	402169	1008	0
0	402169	1009	0
0	402169	1010	-nan
0	402169	1011	-nan
0	402169	1012	-nan
0	402169	1013	-nan
0	402169	1014	-nan
0	402169	1015	-nan
0	402169	1016	-nan
0	402169	1017	-nan
0	402169	1018	-nan
0	402169	1019	-nan
0	402169	1020	-nan
0	402169	1021	-nan
0	402169	1022	-nan
0	402169	1023	0
0	402169	1024	-nan
0	402169	1025	-nan
0	402169	1026	-nan
0	402169	1027	-nan
0	402169	1028	-nan
0	402169	1029	0
0	402169	1030	-nan
0	402169	1031	0
0	402169	1032	-nan
0	402169	1033	-nan
0	402169	1034	-nan
0	402169	1035	-nan
0	402169	1036	-nan
0	402169	1037	-nan
0	402169	1038	-nan
0	402169	1039	-nan
0	402169	1040	-nan
0	402169	1041	-nan
0	402169	1042	-nan
0	402169	1043	-nan
0	402169	1044	-nan
0	402169	1045	-nan
0	402169	1046	-nan
0	402169	1047	-nan
0	402169	1048	-nan
0	402169	1049	0
0	402169	1050	-nan
0	402169	1051	-nan
0	402169	1052	-nan
0	402169	1053	0
0	402169	1054	0
0	402169	1055	-nan
0	402169	1056	0
0	402169	1057	0
0	402169	1058	-nan
0	402169	1059	-nan
0	402169	1060	-nan
0	402169	1061	0
0	402169	1062	-nan
0	402169	1063	0
0	402169	1064	-nan
0	402169	1065	-nan
0	402169	1066	-nan
0	402169	1067	-nan
0	402169	1068	-nan
0	402169	1069	-nan
0	402169	1070	-nan
0	402169	1071	0
0	402169	1072	0
0	402169	1073	-nan
0	402169	1074	-nan
0	402169	1075	0
0	402169	1076	-nan
0	402169	1077	-nan
0	402169	1078	-nan
0	402169	1079	0
0	402169	1080	-nan
0	402169	1081	-nan
0	402169	1082	0
0	402169	1083	-nan
0	402169	1084	-nan
0	402169	1085	-nan
0	402169	1086	0
0	402169	1087	-nan
0	402169	1088	-nan
0	402169	1089	0
0	402169	1090	-nan
0	402169	1091	-nan
0	402169	1092	-nan
0	402169	1093	-nan
0	402169	1094	-nan
0	402169	1095	-nan
0	402169	1096	-nan
0	402169	1097	-nan
0	402169	1098	-nan
0	402169	1099	0
0	402169	1100	-nan
0	402169	1101	-nan
0	402169	1102	-nan
0	402169	1103	-nan
0	402169	1104	0
0	402169	1105	0
0	402169	1106	-nan
0	402169	1107	-nan
0	402169	1108	-nan
0	402169	1109	-nan
0	402169	1110	-nan
0	402169	1111	-nan
0	402169	1112	-nan
0	402169	1113	-nan
0	402169	1114	-nan
0	402169	1115	0
0	402169	1116	-nan
0	402169	1117	-nan
0	402169	1118	-nan
0	402169	1119	0
0	402169	1120	-nan
0	402169	1121	-nan
0	402169	1122	-nan
0	402169	1123	0
0	402169	1124	-nan
0	402169	1125	-nan
0	402169	1126	-nan
0	402169	1127	0
0	402169	1128	-nan
0	402169	1129	-nan
0	402169	1130	0
0	402169	1131	-nan
0	402169	1132	-nan
0	402169	1133	-nan
0	402169	1134	-nan
0	402169	1135	-nan
0	402169	1136	-nan
0	402169	1137	-nan
0	402169	1138	-nan
0	402169	1139	-nan
0	402169	1140	-nan
0	402169	1141	-nan
0	402169	1142	-nan
0	402169	1143	0
0	402169	1144	-nan
0	402169	1145	-nan
0	402169	1146	-nan
0	402169	1147	0
0	402169	1148	-nan
0	402169	1149	0
0	402169	1150	0
0	402169	1151	-nan
0	402169	1152	-nan
0	402169	1153	-nan
0	402169	1154	-nan
0	402169	1155	-nan
0	402169	1156	-nan
0	402169	1157	-nan
0	402169	1158	-nan
0	402169	1159	-nan
0	402169	1160	-nan
0	402169	1161	0
0	402169	1162	0
0	402169	1163	-nan
0	402169	1164	0
0	402169	1165	-nan
0	402169	1166	-nan
0	402169	1167	-nan
0	402169	1168	-nan
0	402169	1169	-nan
0	402169	1170	-nan
0	402169	1171	-nan
0	402169	1172	0
0	402169	1173	-nan
0	402169	1174	-nan
0	402169	1175	0
0	402169	1176	-nan
0	402169	1177	-nan
0	402169	1178	0
vector 1  abilene_network.node[1].content_store  hit_node[1]  ETV
1	402169	1	0.56410256410256
1	402169	2	0.53488372093023
1	402169	3	0.32
1	402169	4	0.2962962962963
1	402169	5	0.43478260869565
1	402169	6	0.32
1	402169	7	0.3
1	402169	8	0.29411764705882
1	402169	9	0.25
1	402169	10	0.33333333333333
1	402169	11	0.14285714285714
1	402169	12	0.26666666666667
1	402169	13	0.38888888888889
1	402169	14	0.14285714285714
1	402169	15	0.16666666666667
1	402169	16	0.090909090909091
1	402169	17	0
1	402169	18	0.2
1	402169	19	0.22222222222222
1	402169	20	0.21428571428571
1	402169	21	0.26666666666667
1	402169	22	0.3
1	402169	23	0.23076923076923
1	402169	24	0
1	402169	25	0.16666666666667
1	402169	26	0.076923076923077
1	402169	27	0.25
1	402169	28	0.23076923076923
1	402169	29	0.27272727272727
1	402169	30	0
1	402169	31	0
1	402169	32	0.3
1	402169	33	0.28571428571429
1	402169	34	0
1	402169	35	0.18181818181818
1	402169	36	0.11111111111111
1	402169	37	0.22222222222222
1	402169	38	0.11111111111111
1	402169	39	0
1	402169	40	0.25
1	402169	41	0.090909090909091
1	402169	42	0.16666666666667
1	402169	43	0.125
1	402169	44	0.125
1	402169	45	0
1	402169	46	0
1	402169	47	0
1	402169	48	0
1	402169	49	0
1	402169	50	0
1	402169	51	0
1	402169	52	0
1	402169	53	0
1	402169	54	0.125
1	402169	55	0
1	402169	56	0
1	402169	57	0.28571428571429
1	402169	58	0
1	402169	59	0
1	402169	60	0.14285714285714
1	402169	61	0
1	402169	62	0
1	402169	63	0.11111111111111
1	402169	64	0
1	402169	65	0.2
1	402169	66	0
1	402169	67	0.2
1	402169	68	0
1	402169	69	0.25
1	402169	70	0
1	402169	71	0
1	402169	72	0
1	402169	73	0.14285714285714
1	402169	74	0
1	402169	75	0
1	402169	76	0.33333333333333
1	402169	77	0
1	402169	78	0
1	402169	79	0.16666666666667
1	402169	80	0
1	402169	81	0.2
1	402169	82	0
1	402169	83	0.33333333333333
1	402169	84	0
1	402169	85	0
1	402169	86	0
1	402169	87	0.2
1	402169	88	0.14285714285714
1	402169	89	0.14285714285714
1	402169	90	0.22222222222222
1	402169	91	0
1	402169	92	0
1	402169	93	0
1	402169	94	-nan
1	402169	95	0.125
1	402169	96	0.125
1	402169	97	0.4
1	402169	98	0.2
1	402169	99	0.125
1	402169	100	0
1	402169	101	0
1	402169	102	0.2
1	402169	103	0
1	402169	104	0.16666666666667
1	402169	105	0.125
1	402169	106	0
1	402169	107	0
1	402169	108	0.2
1	402169	109	0
1	402169	110	0
1	402169	111	0
1	402169	112	0
1	402169	113	0.16666666666667
1	402169	114	0
1	402169	115	0.16666666666667
1	402169	116	0
1	402169	117	0
1	402169	118	0
1	402169	119	0
1	402169	120	0
1	402169	121	0
1	402169	122	0
1	402169	123	0.14285714285714
1	402169	124	0
1	402169	125	0
1	402169	126	0.4
1	402169	127	0
1	402169	128	0.14285714285714
1	402169	129	0
1	402169	130	0
1	402169	131	0
1	402169	132	0.16666666666667
1	402169	133	0
1	402169	134	0
1	402169	135	0
1	402169	136	0
1	402169	137	0
1	402169	138	0
1	402169	139	0
1	402169	140	0
1	402169	141	0
1	402169	142	0
1	402169	143	0
1	402169	144	0
1	402169	145	-nan
1	402169	146	0
1	402169	147	0
1	402169	148	0
1	402169	149	0
1	402169	150	0
1	402169	151	0
1	402169	152	0
1	402169	153	0
1	402169	154	-nan
1	402169	155	0
1	402169	156	0
1	402169	157	0
1	402169	158	0
1	402169	159	0
1	402169	160	0
1	402169	161	-nan
1	402169	162	0
1	402169	163	0
1	402169	164	0
1	402169	165	0
1	402169	166	0
1	402169	167	0
1	402169	168	0
1	402169	169	0.25
1	402169	170	0
1	402169	171	0
1	402169	172	0
1	402169	173	0
1	402169	174	0
1	402169	175	0
1	402169	176	0
1	402169	177	0
1	402169	178	0
1	402169	179	-nan
1	402169	180	0
1	402169	181	0.33333333333333
1	402169	182	0
1	402169	183	0
1	402169	184	0
1	402169	185	0
1	402169	186	0.25
1	402169	187	0.33333333333333
1	402169	188	0
1	402169	189	0
1	402169	190	0
1	402169	191	0
1	402169	192	0
1	402169	193	0
1	402169	194	0.2
1	402169	195	0
1	402169	196	0
1	402169	197	0
1	402169	198	0.5
1	402169	199	0
1	402169	200	0
1	402169	201	0
1	402169	202	0
1	402169	203	0
1	402169	204	0.25
1	402169	205	0
1	402169	206	0
1	402169	207	0
1	402169	208	0
1	402169	209	0
1	402169	210	0
1	402169	211	0
1	402169	212	0.5
1	402169	213	0
1	402169	214	-nan
1	402169	215	0
1	402169	216	0
1	402169	217	0
1	402169	218	0
1	402169	219	0.25
1	402169	220	0
1	402169	221	0
1	402169	222	0
1	402169	223	0.2
1	402169	224	0
1	402169	225	0.16666666666667
1	402169	226	0
1	402169	227	0
1	402169	228	0
1	402169	229	0
1	402169	230	0
1	402169	231	0
1	402169	232	0
1	402169	233	0
1	402169	234	0
1	402169	235	0
1	402169	236	0
1	402169	237	0
1	402169	238	0
1	402169	239	0
1	402169	240	0
1	402169	241	0
1	402169	242	0
1	402169	243	0
1	402169	244	0
1	402169	245	0
1	402169	246	0
1	402169	247	0
1	402169	248	0
1	402169	249	0
1	402169	250	0
1	402169	251	0.25
1	402169	252	0
1	402169	253	0
1	402169	254	0
1	402169	255	0
1	402169	256	0
1	402169	257	0
1	402169	258	0
1	402169	259	0
1	402169	260	0
1	402169	261	0
1	402169	262	0
1	402169	263	0
1	402169	264	0
1	402169	265	0
1	402169	266	0
1	402169	267	0
1	402169	268	0
1	402169	269	0
1	402169	270	0
1	402169	271	-nan
1	402169	272	0
1	402169	273	0
1	402169	274	-nan
1	402169	275	0
1	402169	276	0.25
1	402169	277	0
1	402169	278	-nan
1	402169	279	-nan
1	402169	280	0
1	402169	281	0
1	402169	282	0
1	402169	283	0
1	402169	284	0
1	402169	285	0
1	402169	286	0
1	402169	287	0
1	402169	288	-nan
1	402169	289	0
1	402169	290	0
1	402169	291	0.33333333333333
1	402169	292	0
1	402169	293	0
1	402169	294	0
1	402169	295	0
1	402169	296	-nan
1	402169	297	-nan
1	402169	298	-nan
1	402169	299	0
1	402169	300	0.5
1	402169	301	0
1	402169	302	0
1	402169	303	0
1	402169	304	0
1	402169	305	0
1	402169	306	0
1	402169	307	0
1	402169	308	0
1	402169	309	0
1	402169	310	0
1	402169	311	0
1	402169	312	0
1	402169	313	0
1	402169	314	-nan
1	402169	315	0
1	402169	316	0
1	402169	317	0
1	402169	318	-nan
1	402169	319	0
1	402169	320	0
1	402169	321	0
1	402169	322	0
1	402169	323	0
1	402169	324	0
1	402169	325	0
1	402169	326	0
1	402169	327	-nan
1	402169	328	0
1	402169	329	0
1	402169	330	-nan
1	402169	331	0.25
1	402169	332	0
1	402169	333	0
1	402169	334	-nan
1	402169	335	0
1	402169	336	0
1	402169	337	-nan
1	402169	338	0
1	402169	339	0
1	402169	340	0
1	402169	341	0
1	402169	342	-nan
1	402169	343	0
1	402169	344	0
1	402169	345	0
1	402169	346	0
1	402169	347	0
1	402169	348	0
1	402169	349	0
1	402169	350	-nan
1	402169	351	0
1	402169	352	0
1	402169	353	0
1	402169	354	0.5
1	402169	355	0
1	402169	356	0
1	402169	357	0
1	402169	358	0
1	402169	359	-nan
1	402169	360	-nan
1	402169	361	0
1	402169	362	0
1	402169	363	0
1	402169	364	-nan
1	402169	365	0
1	402169	366	0.16666666666667
1	402169	367	-nan
1	402169	368	0
1	402169	369	0
1	402169	370	0
1	402169	371	0
1	402169	372	0
1	402169	373	0
1	402169	374	0
1	402169	375	-nan
1	402169	376	0
1	402169	377	-nan
1	402169	378	0
1	402169	379	0
1	402169	380	-nan
1	402169	381	0.25
1	402169	382	-nan
1	402169	383	0
1	402169	384	0
1	402169	385	0
1	402169	386	0
1	402169	387	0
1	402169	388	-nan
1	402169	389	0
1	402169	390	0
1	402169	391	-nan
1	402169	392	-nan
1	402169	393	-nan
1	402169	394	0
1	402169	395	-nan
1	402169	396	0
1	402169	397	0
1	402169	398	0
1	402169	399	0
1	402169	400	0
1	402169	401	0
1	402169	402	0
1	402169	403	0
1	402169	404	0
1	402169	405	-nan
1	402169	406	0
1	402169	407	0
1	402169	408	-nan
1	402169	409	0
1	402169	410	0
1	402169	411	-nan
1	402169	412	-nan
1	402169	413	-nan
1	402169	414	0
1	402169	415	0
1	402169	416	-nan
1	402169	417	0
1	402169	418	0
1	402169	419	-nan
1	402169	420	0
1	402169	421	0
1	402169	422	0
1	402169	423	0
1	402169	424	0
1	402169	425	0
1	402169	426	0
1	402169	427	0
1	402169	428	0
1	402169	429	0
1	402169	430	0
1	402169	431	0
1	402169	432	0
1	402169	433	0
1	402169	434	0
1	402169	435	0
1	402169	436	0
1	402169	437	-nan
1	402169	438	0
1	402169	439	0
1	402169	440	0
1	402169	441	-nan
1	402169	442	-nan
1	402169	443	-nan
1	402169	444	0
1	402169	445	-nan
1	402169	446	-nan
1	402169	447	0
1	402169	448	0
1	402169	449	0
1	402169	450	0
1	402169	451	0
1	402169	452	0
1	402169	453	0
1	402169	454	0
1	402169	455	0
1	402169	456	-nan
1	402169	457	0
1	402169	458	0
1	402169	459	0
1	402169	460	-nan
1	402169	461	0
1	402169	462	0
1	402169	463	0
1	402169	464	-nan
1	402169	465	0
1	402169	466	0
1	402169	467	-nan
1	402169	468	-nan
1	402169	469	0
1	402169	470	-nan
1	402169	471	0
1	402169	472	0
1	402169	473	0
1	402169	474	-nan
1	402169	475	0
1	402169	476	0
1	402169	477	-nan
1	402169	478	0
1	402169	479	0
1	402169	480	0
1	402169	481	0
1	402169	482	0
1	402169	483	0
1	402169	484	0
1	402169	485	0
1	402169	486	-nan
1	402169	487	-nan
1	402169	488	0
1	402169	489	0
1	402169	490	0
1	402169	491	0
1	402169	492	0
1	402169	493	-nan
1	402169	494	0.33333333333333
1	402169	495	-nan
1	402169	496	-nan
1	402169	497	0
1	402169	498	0
1	402169	499	0
1	402169	500	0
1	402169	501	-nan
1	402169	502	0
1	402169	503	0
1	402169	504	0
1	402169	505	0
1	402169	506	0
1	402169	507	0
1	402169	508	0
1	402169	509	0
1	402169	510	0
1	402169	511	0
1	402169	512	0
1	402169	513	0
1	402169	514	0
1	402169	515	0
1	402169	516	0
1	402169	517	0
1	402169	518	-nan
1	402169	519	0
1	402169	520	0
1	402169	521	0.2
1	402169	522	0
1	402169	523	-nan
1	402169	524	0
1	402169	525	0