version 2
run General-4-20150311-18:59:35-28957
attr D lce
attr F spr
attr R lru
attr a 0.6
attr configname General
attr datetime 20150311-18:59:35
attr experiment General
attr inifile omnetpp.ini
attr iterationvars "$net=abilene, $rep=0, $a=0.6, $F=spr, $ttl=1000, $D=lce, $R=lru"
attr iterationvars2 "$net=abilene, $rep=0, $a=0.6, $F=spr, $ttl=1000, $D=lce, $R=lru, $repetition=0"
attr measurement "$net=abilene, $rep=0, $a=0.6, $F=spr, $ttl=1000, $D=lce, $R=lru"
attr net abilene
attr network networks.${net=abilene}_network
attr processid 28957
attr rep 0
attr repetition 0
attr replication #0
attr resultdir results
attr runnumber 4
attr seedset 0
attr ttl 1000

vector 0  abilene_network.node[0].content_store  hit_node[0]  ETV
0	395071	1	0.35714285714286
0	395071	2	0.5625
0	395071	3	0.16666666666667
0	395071	4	0.28571428571429
0	395071	5	0.33333333333333
0	395071	6	0.14285714285714
0	395071	7	0.25
0	395071	8	0
0	395071	9	0.14285714285714
0	395071	10	0
0	395071	11	0
0	395071	12	0.25
0	395071	13	0
0	395071	14	0.25
0	395071	15	0
0	395071	16	0.42857142857143
0	395071	17	0
0	395071	18	0
0	395071	19	0.33333333333333
0	395071	20	0
0	395071	21	0.4
0	395071	22	0
0	395071	23	0
0	395071	24	0.66666666666667
0	395071	25	0
0	395071	26	0
0	395071	27	-nan
0	395071	28	0
0	395071	29	0
0	395071	30	0.5
0	395071	31	0
0	395071	32	0
0	395071	33	0
0	395071	34	0
0	395071	35	-nan
0	395071	36	0
0	395071	37	0.25
0	395071	38	0.5
0	395071	39	0
0	395071	40	0
0	395071	41	-nan
0	395071	42	-nan
0	395071	43	0
0	395071	44	0
0	395071	45	0
0	395071	46	0
0	395071	47	-nan
0	395071	48	0
0	395071	49	-nan
0	395071	50	0.33333333333333
0	395071	51	0.16666666666667
0	395071	52	-nan
0	395071	53	0
0	395071	54	0
0	395071	55	0.33333333333333
0	395071	56	-nan
0	395071	57	0
0	395071	58	0
0	395071	59	0
0	395071	60	0
0	395071	61	0
0	395071	62	0
0	395071	63	-nan
0	395071	64	0.33333333333333
0	395071	65	0
0	395071	66	0.5
0	395071	67	0.25
0	395071	68	0
0	395071	69	0.5
0	395071	70	-nan
0	395071	71	0
0	395071	72	-nan
0	395071	73	0
0	395071	74	0
0	395071	75	1
0	395071	76	-nan
0	395071	77	-nan
0	395071	78	0
0	395071	79	0.33333333333333
0	395071	80	0
0	395071	81	0
0	395071	82	0
0	395071	83	0
0	395071	84	-nan
0	395071	85	-nan
0	395071	86	0
0	395071	87	0
0	395071	88	-nan
0	395071	89	0
0	395071	90	0
0	395071	91	-nan
0	395071	92	0
0	395071	93	0
0	395071	94	0
0	395071	95	0.6
0	395071	96	0
0	395071	97	0
0	395071	98	0.5
0	395071	99	-nan
0	395071	100	0
0	395071	101	0
0	395071	102	0
0	395071	103	-nan
0	395071	104	-nan
0	395071	105	-nan
0	395071	106	0
0	395071	107	0
0	395071	108	0
0	395071	109	-nan
0	395071	110	-nan
0	395071	111	0
0	395071	112	0
0	395071	113	0
0	395071	114	0
0	395071	115	0.5
0	395071	116	0
0	395071	117	0.33333333333333
0	395071	118	0
0	395071	119	-nan
0	395071	120	0
0	395071	121	0
0	395071	122	0
0	395071	123	0
0	395071	124	-nan
0	395071	125	-nan
0	395071	126	-nan
0	395071	127	0
0	395071	128	0
0	395071	129	-nan
0	395071	130	0.5
0	395071	131	-nan
0	395071	132	0
0	395071	133	-nan
0	395071	134	-nan
0	395071	135	-nan
0	395071	136	-nan
0	395071	137	-nan
0	395071	138	-nan
0	395071	139	0
0	395071	140	0
0	395071	141	-nan
0	395071	142	-nan
0	395071	143	-nan
0	395071	144	0
0	395071	145	-nan
0	395071	146	0
0	395071	147	-nan
0	395071	148	0
0	395071	149	0
0	395071	150	0
0	395071	151	-nan
0	395071	152	-nan
0	395071	153	-nan
0	395071	154	0
0	395071	155	0
0	395071	156	0
0	395071	157	0
0	395071	158	0
0	395071	159	-nan
0	395071	160	0.25
0	395071	161	0
0	395071	162	0
0	395071	163	0
0	395071	164	0
0	395071	165	0
0	395071	166	0.5
0	395071	167	0
0	395071	168	0
0	395071	169	-nan
0	395071	170	0
0	395071	171	0
0	395071	172	-nan
0	395071	173	-nan
0	395071	174	0
0	395071	175	0
0	395071	176	-nan
0	395071	177	0
0	395071	178	0
0	395071	179	0
0	395071	180	-nan
0	395071	181	0
0	395071	182	-nan
0	395071	183	0
0	395071	184	-nan
0	395071	185	-nan
0	395071	186	-nan
0	395071	187	-nan
0	395071	188	0
0	395071	189	-nan
0	395071	190	0
0	395071	191	0
0	395071	192	-nan
0	395071	193	0
0	395071	194	-nan
0	395071	195	0
0	395071	196	-nan
0	395071	197	-nan
0	395071	198	-nan
0	395071	199	0
0	395071	200	-nan
0	395071	201	0.33333333333333
0	395071	202	-nan
0	395071	203	-nan
0	395071	204	-nan
0	395071	205	-nan
0	395071	206	-nan
0	395071	207	-nan
0	395071	208	0
0	395071	209	-nan
0	395071	210	0
0	395071	211	0
0	395071	212	-nan
0	395071	213	0.33333333333333
0	395071	214	-nan
0	395071	215	0
0	395071	216	0
0	395071	217	0
0	395071	218	0
0	395071	219	0
0	395071	220	0
0	395071	221	0
0	395071	222	0
0	395071	223	0
0	395071	224	0
0	395071	225	0
0	395071	226	0
0	395071	227	-nan
0	395071	228	-nan
0	395071	229	-nan
0	395071	230	-nan
0	395071	231	0
0	395071	232	0
0	395071	233	-nan
0	395071	234	0.5
0	395071	235	-nan
0	395071	236	0
0	395071	237	-nan
0	395071	238	0
0	395071	239	0
0	395071	240	-nan
0	395071	241	-nan
0	395071	242	-nan
0	395071	243	0
0	395071	244	-nan
0	395071	245	-nan
0	395071	246	-nan
0	395071	247	-nan
0	395071	248	0
0	395071	249	-nan
0	395071	250	0
0	395071	251	0
0	395071	252	-nan
0	395071	253	-nan
0	395071	254	0
0	395071	255	-nan
0	395071	256	0
0	395071	257	0
0	395071	258	0
0	395071	259	0
0	395071	260	-nan
0	395071	261	-nan
0	395071	262	0
0	395071	263	0
0	395071	264	0.5
0	395071	265	0
0	395071	266	-nan
0	395071	267	0
0	395071	268	0
0	395071	269	0
0	395071	270	-nan
0	395071	271	0
0	395071	272	-nan
0	395071	273	-nan
0	395071	274	-nan
0	395071	275	0
0	395071	276	-nan
0	395071	277	-nan
0	395071	278	-nan
0	395071	279	-nan
0	395071	280	-nan
0	395071	281	0
0	395071	282	-nan
0	395071	283	-nan
0	395071	284	-nan
0	395071	285	-nan
0	395071	286	0
0	395071	287	0
0	395071	288	0
0	395071	289	-nan
0	395071	290	-nan
0	395071	291	-nan
0	395071	292	0
0	395071	293	0
0	395071	294	-nan
0	395071	295	-nan
0	395071	296	-nan
0	395071	297	0
0	395071	298	0
0	395071	299	-nan
0	395071	300	-nan
0	395071	301	0
0	395071	302	0
0	395071	303	-nan
0	395071	304	-nan
0	395071	305	0
0	395071	306	0
0	395071	307	0
0	395071	308	0
0	395071	309	-nan
0	395071	310	-nan
0	395071	311	-nan
0	395071	312	-nan
0	395071	313	-nan
0	395071	314	-nan
0	395071	315	-nan
0	395071	316	-nan
0	395071	317	-nan
0	395071	318	-nan
0	395071	319	-nan
0	395071	320	0
0	395071	321	0
0	395071	322	-nan
0	395071	323	0
0	395071	324	0
0	395071	325	0
0	395071	326	-nan
0	395071	327	-nan
0	395071	328	-nan
0	395071	329	0
0	395071	330	-nan
0	395071	331	-nan
0	395071	332	-nan
0	395071	333	-nan
0	395071	334	0
0	395071	335	0
0	395071	336	-nan
0	395071	337	-nan
0	395071	338	-nan
0	395071	339	-nan
0	395071	340	-nan
0	395071	341	-nan
0	395071	342	-nan
0	395071	343	-nan
0	395071	344	0
0	395071	345	-nan
0	395071	346	-nan
0	395071	347	-nan
0	395071	348	-nan
0	395071	349	-nan
0	395071	350	-nan
0	395071	351	0
0	395071	352	0
0	395071	353	-nan
0	395071	354	-nan
0	395071	355	-nan
0	395071	356	0
0	395071	357	-nan
0	395071	358	-nan
0	395071	359	0
0	395071	360	0
0	395071	361	0
0	395071	362	-nan
0	395071	363	-nan
0	395071	364	-nan
0	395071	365	-nan
0	395071	366	0
0	395071	367	-nan
0	395071	368	0
0	395071	369	-nan
0	395071	370	0
0	395071	371	-nan
0	395071	372	-nan
0	395071	373	0
0	395071	374	-nan
0	395071	375	-nan
0	395071	376	0
0	395071	377	0
0	395071	378	0
0	395071	379	0
0	395071	380	0
0	395071	381	0
0	395071	382	0
0	395071	383	0
0	395071	384	0
0	395071	385	-nan
0	395071	386	-nan
0	395071	387	-nan
0	395071	388	-nan
0	395071	389	-nan
0	395071	390	0
0	395071	391	-nan
0	395071	392	0
0	395071	393	0
0	395071	394	0
0	395071	395	-nan
0	395071	396	-nan
0	395071	397	-nan
0	395071	398	-nan
0	395071	399	-nan
0	395071	400	0
0	395071	401	-nan
0	395071	402	-nan
0	395071	403	0
0	395071	404	-nan
0	395071	405	0
0	395071	406	0
0	395071	407	0
0	395071	408	-nan
0	395071	409	0
0	395071	410	0
0	395071	411	-nan
0	395071	412	0
0	395071	413	-nan
0	395071	414	-nan
0	395071	415	0
0	395071	416	0
0	395071	417	0
0	395071	418	0
0	395071	419	-nan
0	395071	420	0
0	395071	421	-nan
0	395071	422	0
0	395071	423	0
0	395071	424	0
0	395071	425	0
0	395071	426	0
0	395071	427	-nan
0	395071	428	-nan
0	395071	429	-nan
0	395071	430	0
0	395071	431	-nan
0	395071	432	-nan
0	395071	433	0
0	395071	434	-nan
0	395071	435	0
0	395071	436	0
0	395071	437	-nan
0	395071	438	0
0	395071	439	-nan
0	395071	440	-nan
0	395071	441	-nan
0	395071	442	-nan
0	395071	443	-nan
0	395071	444	0
0	395071	445	-nan
0	395071	446	-nan
0	395071	447	-nan
0	395071	448	0
0	395071	449	-nan
0	395071	450	-nan
0	395071	451	-nan
0	395071	452	0
0	395071	453	0
0	395071	454	-nan
0	395071	455	-nan
0	395071	456	0
0	395071	457	-nan
0	395071	458	-nan
0	395071	459	-nan
0	395071	460	-nan
0	395071	461	-nan
0	395071	462	0
0	395071	463	-nan
0	395071	464	-nan
0	395071	465	-nan
0	395071	466	-nan
0	395071	467	0
0	395071	468	-nan
0	395071	469	-nan
0	395071	470	-nan
0	395071	471	0
0	395071	472	0
0	395071	473	-nan
0	395071	474	-nan
0	395071	475	0
0	395071	476	0
0	395071	477	0
0	395071	478	-nan
0	395071	479	0
0	395071	480	0
0	395071	481	-nan
0	395071	482	-nan
0	395071	483	-nan
0	395071	484	-nan
0	395071	485	-nan
0	395071	486	-nan
0	395071	487	-nan
0	395071	488	-nan
0	395071	489	0.5
0	395071	490	-nan
0	395071	491	-nan
0	395071	492	-nan
0	395071	493	0
0	395071	494	0
0	395071	495	0
0	395071	496	-nan
0	395071	497	-nan
0	395071	498	0
0	395071	499	-nan
0	395071	500	-nan
0	395071	501	-nan
0	395071	502	0
0	395071	503	-nan
0	395071	504	0.33333333333333
0	395071	505	0
0	395071	506	0
0	395071	507	-nan
0	395071	508	-nan
0	395071	509	-nan
0	395071	510	0
0	395071	511	-nan
0	395071	512	-nan
0	395071	513	0
0	395071	514	-nan
0	395071	515	0
0	395071	516	-nan
0	395071	517	-nan
0	395071	518	0
0	395071	519	-nan
0	395071	520	0.5
0	395071	521	-nan
0	395071	522	-nan
0	395071	523	0
0	395071	524	-nan
0	395071	525	0
0	395071	526	-nan
0	395071	527	-nan
0	395071	528	-nan
0	395071	529	0
0	395071	530	-nan
0	395071	531	-nan
0	395071	532	0
0	395071	533	0
0	395071	534	-nan
0	395071	535	-nan
0	395071	536	0
0	395071	537	-nan
0	395071	538	-nan
0	395071	539	-nan
0	395071	540	0
0	395071	541	-nan
0	395071	542	0
0	395071	543	-nan
0	395071	544	-nan
0	395071	545	-nan
0	395071	546	-nan
0	395071	547	0
0	395071	548	-nan
0	395071	549	-nan
0	395071	550	0
0	395071	551	0
0	395071	552	0
0	395071	553	0
0	395071	554	-nan
0	395071	555	-nan
0	395071	556	-nan
0	395071	557	0
0	395071	558	-nan
0	395071	559	-nan
0	395071	560	-nan
0	395071	561	0
0	395071	562	0
0	395071	563	-nan
0	395071	564	0
0	395071	565	-nan
0	395071	566	-nan
0	395071	567	-nan
0	395071	568	0
0	395071	569	-nan
0	395071	570	-nan
0	395071	571	-nan
0	395071	572	-nan
0	395071	573	-nan
0	395071	574	-nan
0	395071	575	-nan
0	395071	576	-nan
0	395071	577	-nan
0	395071	578	0
0	395071	579	-nan
0	395071	580	0
0	395071	581	-nan
0	395071	582	0
0	395071	583	-nan
0	395071	584	-nan
0	395071	585	-nan
0	395071	586	0
0	395071	587	-nan
0	395071	588	-nan
0	395071	589	-nan
0	395071	590	-nan
0	395071	591	-nan
0	395071	592	-nan
0	395071	593	0
0	395071	594	0
0	395071	595	-nan
0	395071	596	-nan
0	395071	597	-nan
0	395071	598	0
0	395071	599	-nan
0	395071	600	-nan
0	395071	601	0
0	395071	602	-nan
0	395071	603	-nan
0	395071	604	-nan
0	395071	605	-nan
0	395071	606	-nan
0	395071	607	-nan
0	395071	608	0
0	395071	609	-nan
0	395071	610	0
0	395071	611	0
0	395071	612	-nan
0	395071	613	-nan
0	395071	614	0
0	395071	615	-nan
0	395071	616	0
0	395071	617	0
0	395071	618	-nan
0	395071	619	0
0	395071	620	0
0	395071	621	-nan
0	395071	622	-nan
0	395071	623	-nan
0	395071	624	-nan
0	395071	625	0
0	395071	626	-nan
0	395071	627	0
0	395071	628	-nan
0	395071	629	0
0	395071	630	-nan
0	395071	631	0
0	395071	632	-nan
0	395071	633	-nan
0	395071	634	-nan
0	395071	635	-nan
0	395071	636	-nan
0	395071	637	-nan
0	395071	638	0
0	395071	639	-nan
0	395071	640	-nan
0	395071	641	0
0	395071	642	-nan
0	395071	643	-nan
0	395071	644	-nan
0	395071	645	0
0	395071	646	-nan
0	395071	647	0
0	395071	648	-nan
0	395071	649	-nan
0	395071	650	0
0	395071	651	-nan
0	395071	652	-nan
0	395071	653	0
0	395071	654	-nan
0	395071	655	-nan
0	395071	656	-nan
0	395071	657	0
0	395071	658	-nan
0	395071	659	-nan
0	395071	660	-nan
0	395071	661	0
0	395071	662	0
0	395071	663	-nan
0	395071	664	-nan
0	395071	665	-nan
0	395071	666	-nan
0	395071	667	-nan
0	395071	668	-nan
0	395071	669	-nan
0	395071	670	-nan
0	395071	671	-nan
0	395071	672	-nan
0	395071	673	0
0	395071	674	-nan
0	395071	675	-nan
0	395071	676	-nan
0	395071	677	-nan
0	395071	678	-nan
0	395071	679	-nan
0	395071	680	-nan
0	395071	681	-nan
0	395071	682	-nan
0	395071	683	0
0	395071	684	-nan
0	395071	685	0
0	395071	686	-nan
0	395071	687	-nan
0	395071	688	-nan
0	395071	689	-nan
0	395071	690	0
0	395071	691	-nan
0	395071	692	0
0	395071	693	-nan
0	395071	694	-nan
0	395071	695	-nan
0	395071	696	0
0	395071	697	-nan
0	395071	698	0
0	395071	699	-nan
0	395071	700	-nan
0	395071	701	0
0	395071	702	-nan
0	395071	703	-nan
0	395071	704	-nan
0	395071	705	0
0	395071	706	0
0	395071	707	-nan
0	395071	708	0
0	395071	709	-nan
0	395071	710	-nan
0	395071	711	-nan
0	395071	712	0
0	395071	713	0
0	395071	714	0
0	395071	715	-nan
0	395071	716	-nan
0	395071	717	-nan
0	395071	718	-nan
0	395071	719	-nan
0	395071	720	-nan
0	395071	721	-nan
0	395071	722	0
0	395071	723	-nan
0	395071	724	0
0	395071	725	0
0	395071	726	-nan
0	395071	727	-nan
0	395071	728	-nan
0	395071	729	0
0	395071	730	0
0	395071	731	-nan
0	395071	732	-nan
0	395071	733	-nan
0	395071	734	-nan
0	395071	735	-nan
0	395071	736	-nan
0	395071	737	-nan
0	395071	738	-nan
0	395071	739	-nan
0	395071	740	0
0	395071	741	-nan
0	395071	742	0
0	395071	743	0
0	395071	744	-nan
0	395071	745	0
0	395071	746	-nan
0	395071	747	-nan
0	395071	748	-nan
0	395071	749	-nan
0	395071	750	-nan
0	395071	751	-nan
0	395071	752	-nan
0	395071	753	-nan
0	395071	754	-nan
0	395071	755	0
0	395071	756	-nan
0	395071	757	-nan
0	395071	758	-nan
0	395071	759	-nan
0	395071	760	-nan
0	395071	761	-nan
0	395071	762	-nan
0	395071	763	-nan
0	395071	764	-nan
0	395071	765	-nan
0	395071	766	-nan
0	395071	767	0
0	395071	768	0
0	395071	769	-nan
0	395071	770	-nan
0	395071	771	0
0	395071	772	0
0	395071	773	-nan
0	395071	774	0
0	395071	775	-nan
0	395071	776	-nan
0	395071	777	-nan
0	395071	778	-nan
0	395071	779	-nan
0	395071	780	-nan
0	395071	781	-nan
0	395071	782	0
0	395071	783	0
0	395071	784	-nan
0	395071	785	-nan
0	395071	786	-nan
0	395071	787	-nan
0	395071	788	-nan
0	395071	789	-nan
0	395071	790	-nan
0	395071	791	-nan
0	395071	792	-nan
0	395071	793	-nan
0	395071	794	-nan
0	395071	795	-nan
0	395071	796	-nan
0	395071	797	0
0	395071	798	-nan
0	395071	799	-nan
0	395071	800	-nan
0	395071	801	0
0	395071	802	-nan
0	395071	803	-nan
0	395071	804	-nan
0	395071	805	-nan
0	395071	806	0
0	395071	807	-nan
0	395071	808	-nan
0	395071	809	0
0	395071	810	0.5
0	395071	811	0
0	395071	812	0
0	395071	813	-nan
0	395071	814	-nan
0	395071	815	-nan
0	395071	816	-nan
0	395071	817	0
0	395071	818	0
0	395071	819	-nan
0	395071	820	0
0	395071	821	-nan
0	395071	822	0
0	395071	823	0
0	395071	824	-nan
0	395071	825	0
0	395071	826	-nan
0	395071	827	-nan
0	395071	828	-nan
0	395071	829	-nan
0	395071	830	-nan
0	395071	831	-nan
0	395071	832	-nan
0	395071	833	0
0	395071	834	0
0	395071	835	0
0	395071	836	0
0	395071	837	-nan
0	395071	838	-nan
0	395071	839	-nan
0	395071	840	-nan
0	395071	841	-nan
0	395071	842	-nan
0	395071	843	-nan
0	395071	844	-nan
0	395071	845	-nan
0	395071	846	-nan
0	395071	847	-nan
0	395071	848	-nan
0	395071	849	-nan
0	395071	850	-nan
0	395071	851	-nan
0	395071	852	-nan
0	395071	853	-nan
0	395071	854	-nan
0	395071	855	-nan
0	395071	856	0
0	395071	857	0
0	395071	858	-nan
0	395071	859	-nan
0	395071	860	-nan
0	395071	861	-nan
0	395071	862	0
0	395071	863	0
0	395071	864	0
0	395071	865	-nan
0	395071	866	0
0	395071	867	0
0	395071	868	0
0	395071	869	0
0	395071	870	-nan
0	395071	871	-nan
0	395071	872	-nan
0	395071	873	-nan
0	395071	874	-nan
0	395071	875	-nan
0	395071	876	-nan
0	395071	877	0
0	395071	878	-nan
0	395071	879	-nan
0	395071	880	-nan
0	395071	881	0
0	395071	882	-nan
0	395071	883	-nan
0	395071	884	-nan
0	395071	885	-nan
0	395071	886	-nan
0	395071	887	-nan
0	395071	888	-nan
0	395071	889	-nan
0	395071	890	0
0	395071	891	-nan
0	395071	892	-nan
0	395071	893	-nan
0	395071	894	-nan
0	395071	895	-nan
0	395071	896	0
0	395071	897	-nan
0	395071	898	-nan
0	395071	899	0
0	395071	900	-nan
0	395071	901	-nan
0	395071	902	-nan
0	395071	903	0
0	395071	904	-nan
0	395071	905	-nan
0	395071	906	0
0	395071	907	-nan
0	395071	908	-nan
0	395071	909	-nan
0	395071	910	-nan
0	395071	911	0
0	395071	912	-nan
0	395071	913	-nan
0	395071	914	-nan
0	395071	915	-nan
0	395071	916	-nan
0	395071	917	-nan
0	395071	918	-nan
0	395071	919	0
0	395071	920	-nan
0	395071	921	-nan
0	395071	922	-nan
0	395071	923	-nan
0	395071	924	-nan
0	395071	925	0
0	395071	926	-nan
0	395071	927	-nan
0	395071	928	-nan
0	395071	929	-nan
0	395071	930	-nan
0	395071	931	-nan
0	395071	932	-nan
0	395071	933	0
0	395071	934	-nan
0	395071	935	-nan
0	395071	936	-nan
0	395071	937	-nan
0	395071	938	-nan
0	395071	939	-nan
0	395071	940	-nan
0	395071	941	-nan
0	395071	942	0
0	395071	943	-nan
0	395071	944	0
0	395071	945	-nan
0	395071	946	0
0	395071	947	0.33333333333333
0	395071	948	-nan
0	395071	949	-nan
0	395071	950	-nan
0	395071	951	-nan
0	395071	952	-nan
0	395071	953	0
0	395071	954	-nan
0	395071	955	-nan
0	395071	956	-nan
0	395071	957	-nan
0	395071	958	0
0	395071	959	0
0	395071	960	0
0	395071	961	0
0	395071	962	-nan
0	395071	963	-nan
0	395071	964	-nan
0	395071	965	-nan
0	395071	966	0
0	395071	967	-nan
0	395071	968	-nan
0	395071	969	0
0	395071	970	-nan
0	395071	971	0
0	395071	972	-nan
0	395071	973	-nan
0	395071	974	-nan
0	395071	975	-nan
0	395071	976	-nan
0	395071	977	0
0	395071	978	0
0	395071	979	0
0	395071	980	0
0	395071	981	0
0	395071	982	0
0	395071	983	-nan
0	395071	984	-nan
0	395071	985	-nan
0	395071	986	0
0	395071	987	-nan
0	395071	988	-nan
0	395071	989	-nan
0	395071	990	-nan
0	395071	991	0
0	395071	992	-nan
0	395071	993	0
0	395071	994	-nan
0	395071	995	-nan
0	395071	996	-nan
0	395071	997	0
0	395071	998	-nan
0	395071	999	-nan
0	395071	1000	-nan
0	395071	1001	-nan
0	395071	1002	-nan
0	395071	1003	-nan
0	395071	1004	-nan
0	395071	1005	-nan
0	395071	1006	-nan
0	395071	1007	0
0	395071	1008	0
0	395071	1009	0
0	395071	1010	-nan
0	395071	1011	0
0	395071	1012	-nan
0	395071	1013	-nan
0	395071	1014	-nan
0	395071	1015	-nan
0	395071	1016	-nan
0	395071	1017	-nan
0	395071	1018	-nan
0	395071	1019	-nan
0	395071	1020	0
0	395071	1021	-nan
0	395071	1022	-nan
0	395071	1023	-nan
0	395071	1024	0
0	395071	1025	-nan
0	395071	1026	-nan
0	395071	1027	-nan
0	395071	1028	-nan
0	395071	1029	0
0	395071	1030	-nan
0	395071	1031	-nan
0	395071	1032	-nan
0	395071	1033	-nan
0	395071	1034	-nan
0	395071	1035	0
0	395071	1036	-nan
0	395071	1037	-nan
0	395071	1038	0
0	395071	1039	-nan
0	395071	1040	0
0	395071	1041	-nan
0	395071	1042	-nan
0	395071	1043	-nan
0	395071	1044	-nan
0	395071	1045	-nan
0	395071	1046	0
0	395071	1047	-nan
0	395071	1048	-nan
0	395071	1049	0
0	395071	1050	0
0	395071	1051	-nan
0	395071	1052	0
0	395071	1053	-nan
0	395071	1054	-nan
0	395071	1055	-nan
0	395071	1056	-nan
0	395071	1057	-nan
0	395071	1058	-nan
0	395071	1059	-nan
0	395071	1060	0
0	395071	1061	-nan
0	395071	1062	0
0	395071	1063	0
0	395071	1064	-nan
0	395071	1065	-nan
0	395071	1066	-nan
0	395071	1067	-nan
0	395071	1068	-nan
0	395071	1069	-nan
0	395071	1070	0
0	395071	1071	0
0	395071	1072	-nan
0	395071	1073	-nan
0	395071	1074	-nan
0	395071	1075	-nan
0	395071	1076	-nan
0	395071	1077	-nan
0	395071	1078	-nan
0	395071	1079	-nan
0	395071	1080	0
0	395071	1081	-nan
0	395071	1082	0
0	395071	1083	0
0	395071	1084	-nan
0	395071	1085	-nan
0	395071	1086	0
0	395071	1087	-nan
0	395071	1088	-nan
0	395071	1089	-nan
0	395071	1090	0
0	395071	1091	-nan
0	395071	1092	-nan
0	395071	1093	-nan
0	395071	1094	-nan
0	395071	1095	-nan
0	395071	1096	-nan
0	395071	1097	-nan
0	395071	1098	-nan
0	395071	1099	-nan
0	395071	1100	-nan
0	395071	1101	-nan
0	395071	1102	0
0	395071	1103	-nan
0	395071	1104	0
0	395071	1105	-nan
0	395071	1106	0
0	395071	1107	-nan
0	395071	1108	-nan
0	395071	1109	-nan
0	395071	1110	0
0	395071	1111	-nan
0	395071	1112	0
0	395071	1113	0
0	395071	1114	0
0	395071	1115	-nan
0	395071	1116	0
0	395071	1117	-nan
0	395071	1118	0
0	395071	1119	0
0	395071	1120	0
0	395071	1121	-nan
0	395071	1122	-nan
0	395071	1123	0
0	395071	1124	-nan
0	395071	1125	-nan
0	395071	1126	0
0	395071	1127	0
0	395071	1128	-nan
0	395071	1129	-nan
0	395071	1130	-nan
0	395071	1131	-nan
0	395071	1132	-nan
0	395071	1133	-nan
0	395071	1134	0
0	395071	1135	-nan
0	395071	1136	0
0	395071	1137	-nan
0	395071	1138	-nan
0	395071	1139	0
0	395071	1140	-nan
0	395071	1141	0
0	395071	1142	-nan
0	395071	1143	0
0	395071	1144	-nan
0	395071	1145	-nan
0	395071	1146	-nan
0	395071	1147	-nan
0	395071	1148	-nan
0	395071	1149	-nan
0	395071	1150	0
0	395071	1151	0
0	395071	1152	-nan
0	395071	1153	0
0	395071	1154	-nan
0	395071	1155	-nan
0	395071	1156	-nan
0	395071	1157	-nan
0	395071	1158	-nan
0	395071	1159	-nan
0	395071	1160	0
0	395071	1161	-nan
0	395071	1162	-nan
0	395071	1163	-nan
0	395071	1164	-nan
0	395071	1165	-nan
0	395071	1166	-nan
0	395071	1167	-nan
0	395071	1168	-nan
0	395071	1169	-nan
0	395071	1170	-nan
0	395071	1171	0
0	395071	1172	-nan
0	395071	1173	-nan
0	395071	1174	-nan
0	395071	1175	-nan
0	395071	1176	0
0	395071	1177	-nan
0	395071	1178	0
0	395071	1179	-nan
0	395071	1180	0
0	395071	1181	-nan
0	395071	1182	-nan
0	395071	1183	-nan
0	395071	1184	-nan
0	395071	1185	-nan
0	395071	1186	-nan
0	395071	1187	-nan
0	395071	1188	0
0	395071	1189	-nan
0	395071	1190	-nan
0	395071	1191	0
0	395071	1192	-nan
0	395071	1193	-nan
0	395071	1194	-nan
0	395071	1195	0.5
0	395071	1196	-nan
0	395071	1197	-nan
0	395071	1198	-nan
0	395071	1199	-nan
0	395071	1200	-nan
0	395071	1201	-nan
0	395071	1202	0
0	395071	1203	0
0	395071	1204	-nan
0	395071	1205	0
0	395071	1206	-nan
0	395071	1207	-nan
0	395071	1208	-nan
0	395071	1209	-nan
0	395071	1210	0
0	395071	1211	0
0	395071	1212	-nan
0	395071	1213	-nan
0	395071	1214	-nan
0	395071	1215	0.5
0	395071	1216	-nan
0	395071	1217	-nan
0	395071	1218	0
0	395071	1219	-nan
0	395071	1220	-nan
0	395071	1221	0
0	395071	1222	0
0	395071	1223	0
0	395071	1224	-nan
0	395071	1225	0
0	395071	1226	-nan
0	395071	1227	0
0	395071	1228	-nan
0	395071	1229	0
0	395071	1230	-nan
0	395071	1231	-nan
0	395071	1232	0
0	395071	1233	-nan
0	395071	1234	-nan
0	395071	1235	-nan
0	395071	1236	-nan
0	395071	1237	-nan
0	395071	1238	-nan
0	395071	1239	-nan
0	395071	1240	-nan
0	395071	1241	-nan
0	395071	1242	-nan
0	395071	1243	-nan
0	395071	1244	-nan
0	395071	1245	-nan
0	395071	1246	-nan
0	395071	1247	-nan
0	395071	1248	0
0	395071	1249	-nan
0	395071	1250	0
0	395071	1251	-nan
0	395071	1252	-nan
0	395071	1253	-nan
0	395071	1254	-nan
0	395071	1255	-nan
0	395071	1256	-nan
0	395071	1257	0
0	395071	1258	-nan
0	395071	1259	-nan
0	395071	1260	-nan
0	395071	1261	-nan
0	395071	1262	0
0	395071	1263	-nan
0	395071	1264	-nan
0	395071	1265	-nan
0	395071	1266	-nan
0	395071	1267	0
0	395071	1268	0
0	395071	1269	-nan
0	395071	1270	-nan
0	395071	1271	-nan
0	395071	1272	-nan
0	395071	1273	-nan
0	395071	1274	-nan
0	395071	1275	-nan
0	395071	1276	0
0	395071	1277	-nan
0	395071	1278	-nan
0	395071	1279	-nan
0	395071	1280	-nan
0	395071	1281	-nan
0	395071	1282	0
0	395071	1283	-nan
0	395071	1284	-nan
0	395071	1285	-nan
0	395071	1286	0
0	395071	1287	-nan
0	395071	1288	-nan
0	395071	1289	-nan
0	395071	1290	-nan
0	395071	1291	-nan
0	395071	1292	-nan
0	395071	1293	-nan
0	395071	1294	-nan
0	395071	1295	0
0	395071	1296	-nan
0	395071	1297	-nan
0	395071	1298	0
0	395071	1299	-nan
0	395071	1300	-nan
0	395071	1301	-nan
0	395071	1302	0
0	395071	1303	-nan
0	395071	1304	0
0	395071	1305	-nan
0	395071	1306	-nan
0	395071	1307	-nan
0	395071	1308	-nan
0	395071	1309	0
0	395071	1310	-nan
0	395071	1311	-nan
0	395071	1312	-nan
0	395071	1313	-nan
0	395071	1314	-nan
0	395071	1315	-nan
0	395071	1316	-nan
0	395071	1317	-nan
0	395071	1318	0
0	395071	1319	0
0	395071	1320	-nan
0	395071	1321	-nan
0	395071	1322	-nan
0	395071	1323	-nan
0	395071	1324	0
0	395071	1325	-nan
0	395071	1326	-nan
0	395071	1327	-nan
0	395071	1328	-nan
0	395071	1329	-nan
0	395071	1330	-nan
0	395071	1331	-nan
0	395071	1332	-nan
0	395071	1333	0
0	395071	1334	0
0	395071	1335	0
0	395071	1336	-nan
0	395071	1337	-nan
0	395071	1338	-nan
0	395071	1339	-nan
0	395071	1340	0
0	395071	1341	-nan
0	395071	1342	0
0	395071	1343	-nan
0	395071	1344	0
0	395071	1345	-nan
0	395071	1346	-nan
0	395071	1347	-nan
0	395071	1348	-nan
0	395071	1349	-nan
0	395071	1350	0
0	395071	1351	-nan
0	395071	1352	-nan
0	395071	1353	-nan
0	395071	1354	0
0	395071	1355	-nan
0	395071	1356	-nan
0	395071	1357	-nan
0	395071	1358	0
0	395071	1359	-nan
0	395071	1360	-nan
0	395071	1361	-nan
0	395071	1362	-nan
0	395071	1363	-nan
0	395071	1364	-nan
0	395071	1365	0
0	395071	1366	-nan
0	395071	1367	0
0	395071	1368	-nan
0	395071	1369	0
0	395071	1370	-nan
0	395071	1371	-nan
0	395071	1372	0
0	395071	1373	-nan
0	395071	1374	-nan
0	395071	1375	-nan
0	395071	1376	-nan
0	395071	1377	-nan
0	395071	1378	-nan
0	395071	1379	-nan
0	395071	1380	-nan
0	395071	1381	-nan
0	395071	1382	-nan
0	395071	1383	-nan
0	395071	1384	-nan
0	395071	1385	-nan
0	395071	1386	-nan
0	395071	1387	-nan
0	395071	1388	-nan
0	395071	1389	-nan
0	395071	1390	-nan
0	395071	1391	-nan
0	395071	1392	-nan
0	395071	1393	-nan
0	395071	1394	0
0	395071	1395	-nan
0	395071	1396	-nan
0	395071	1397	-nan
0	395071	1398	-nan
0	395071	1399	-nan
0	395071	1400	0
0	395071	1401	-nan
0	395071	1402	0
0	395071	1403	-nan
0	395071	1404	-nan
0	395071	1405	-nan
0	395071	1406	-nan
0	395071	1407	-nan
0	395071	1408	-nan
0	395071	1409	-nan
0	395071	1410	0
0	395071	1411	-nan
0	395071	1412	0
0	395071	1413	-nan
0	395071	1414	-nan
0	395071	1415	-nan
0	395071	1416	-nan
0	395071	1417	-nan
0	395071	1418	-nan
0	395071	1419	-nan
0	395071	1420	-nan
0	395071	1421	-nan
0	395071	1422	-nan
0	395071	1423	-nan
0	395071	1424	-nan
0	395071	1425	-nan
0	395071	1426	-nan
0	395071	1427	-nan
0	395071	1428	-nan
0	395071	1429	-nan
0	395071	1430	-nan
0	395071	1431	-nan
0	395071	1432	-nan
0	395071	1433	-nan
0	395071	1434	-nan
0	395071	1435	0
0	395071	1436	-nan
0	395071	1437	0
0	395071	1438	0
0	395071	1439	-nan
0	395071	1440	-nan
0	395071	1441	-nan
0	395071	1442	0
0	395071	1443	0
0	395071	1444	-nan
0	395071	1445	-nan
0	395071	1446	-nan
0	395071	1447	0
0	395071	1448	-nan
0	395071	1449	-nan
0	395071	1450	-nan
0	395071	1451	0
0	395071	1452	-nan
0	395071	1453	-nan
0	395071	1454	0
0	395071	1455	-nan
0	395071	1456	0
0	395071	1457	-nan
0	395071	1458	-nan
0	395071	1459	-nan
0	395071	1460	-nan
0	395071	1461	-nan
0	395071	1462	-nan
0	395071	1463	-nan
0	395071	1464	-nan
0	395071	1465	0
0	395071	1466	-nan
0	395071	1467	-nan
0	395071	1468	-nan
0	395071	1469	-nan
0	395071	1470	-nan
0	395071	1471	-nan
0	395071	1472	-nan
0	395071	1473	-nan
0	395071	1474	-nan
0	395071	1475	-nan
0	395071	1476	-nan
0	395071	1477	-nan
0	395071	1478	-nan
0	395071	1479	0
0	395071	1480	-nan
0	395071	1481	-nan
0	395071	1482	0
0	395071	1483	-nan
0	395071	1484	-nan
0	395071	1485	-nan
0	395071	1486	-nan
0	395071	1487	0
0	395071	1488	-nan
0	395071	1489	-nan
0	395071	1490	-nan
0	395071	1491	0
0	395071	1492	-nan
0	395071	1493	-nan
0	395071	1494	-nan
0	395071	1495	-nan
0	395071	1496	-nan
0	395071	1497	-nan
0	395071	1498	-nan
0	395071	1499	-nan
0	395071	1500	-nan
0	395071	1501	-nan
0	395071	1502	0
0	395071	1503	-nan
0	395071	1504	0
0	395071	1505	-nan
0	395071	1506	-nan
0	395071	1507	-nan
0	395071	1508	0
0	395071	1509	-nan
0	395071	1510	-nan
0	395071	1511	-nan
0	395071	1512	-nan
0	395071	1513	-nan
0	395071	1514	-nan
0	395071	1515	-nan
0	395071	1516	0
0	395071	1517	-nan
0	395071	1518	-nan
0	395071	1519	-nan
0	395071	1520	-nan
0	395071	1521	-nan
0	395071	1522	-nan
0	395071	1523	-nan
0	395071	1524	-nan
0	395071	1525	-nan
0	395071	1526	-nan
0	395071	1527	-nan
0	395071	1528	-nan
0	395071	1529	0
0	395071	1530	-nan
0	395071	1531	0
0	395071	1532	-nan
0	395071	1533	-nan
0	395071	1534	0
0	395071	1535	0
0	395071	1536	-nan
0	395071	1537	-nan
0	395071	1538	-nan
0	395071	1539	-nan
0	395071	1540	-nan
0	395071	1541	0
0	395071	1542	-nan
0	395071	1543	-nan
0	395071	1544	-nan
0	395071	1545	-nan
0	395071	1546	-nan
0	395071	1547	-nan
0	395071	1548	0
0	395071	1549	-nan
0	395071	1550	0
0	395071	1551	-nan
0	395071	1552	-nan
0	395071	1553	0
0	395071	1554	-nan
0	395071	1555	-nan
0	395071	1556	0
0	395071	1557	-nan
0	395071	1558	-nan
0	395071	1559	-nan
0	395071	1560	0
0	395071	1561	0
0	395071	1562	0
0	395071	1563	-nan
0	395071	1564	-nan
0	395071	1565	-nan
0	395071	1566	-nan
0	395071	1567	-nan
0	395071	1568	-nan
0	395071	1569	0
0	395071	1570	0
0	395071	1571	-nan
0	395071	1572	-nan
0	395071	1573	-nan
0	395071	1574	-nan
0	395071	1575	-nan
0	395071	1576	-nan
0	395071	1577	0
0	395071	1578	-nan
0	395071	1579	0
0	395071	1580	-nan
0	395071	1581	-nan
0	395071	1582	0
0	395071	1583	-nan
0	395071	1584	-nan
0	395071	1585	-nan
0	395071	1586	-nan
0	395071	1587	-nan
0	395071	1588	-nan
0	395071	1589	-nan
0	395071	1590	-nan
0	395071	1591	-nan
0	395071	1592	-nan
0	395071	1593	-nan
0	395071	1594	0
0	395071	1595	-nan
0	395071	1596	-nan
0	395071	1597	0
0	395071	1598	-nan
0	395071	1599	0
0	395071	1600	-nan
0	395071	1601	0
0	395071	1602	0
0	395071	1603	-nan
0	395071	1604	-nan
0	395071	1605	0
0	395071	1606	-nan
0	395071	1607	-nan
0	395071	1608	-nan
0	395071	1609	-nan
0	395071	1610	-nan
0	395071	1611	-nan
0	395071	1612	0
0	395071	1613	-nan
0	395071	1614	-nan
0	395071	1615	-nan
0	395071	1616	0
0	395071	1617	-nan
0	395071	1618	-nan
0	395071	1619	-nan
0	395071	1620	-nan
0	395071	1621	-nan
0	395071	1622	-nan
0	395071	1623	-nan
0	395071	1624	-nan
0	395071	1625	-nan
0	395071	1626	-nan
0	395071	1627	-nan
0	395071	1628	0
0	395071	1629	-nan
0	395071	1630	-nan
0	395071	1631	-nan
0	395071	1632	-nan
0	395071	1633	-nan
0	395071	1634	-nan
0	395071	1635	-nan
0	395071	1636	0
0	395071	1637	-nan
0	395071	1638	0
0	395071	1639	-nan
0	395071	1640	0
0	395071	1641	-nan
0	395071	1642	-nan
0	395071	1643	-nan
0	395071	1644	-nan
0	395071	1645	-nan
0	395071	1646	-nan
0	395071	1647	-nan
0	395071	1648	-nan
0	395071	1649	-nan
0	395071	1650	-nan
0	395071	1651	-nan
0	395071	1652	-nan
0	395071	1653	-nan
0	395071	1654	-nan
0	395071	1655	-nan
0	395071	1656	-nan
0	395071	1657	-nan
0	395071	1658	-nan
0	395071	1659	-nan
0	395071	1660	-nan
0	395071	1661	-nan
0	395071	1662	-nan
0	395071	1663	-nan
0	395071	1664	-nan
0	395071	1665	-nan
0	395071	1666	0
0	395071	1667	-nan
0	395071	1668	-nan
0	395071	1669	0