file 463843714 1397827425                                       
version 2
run General-191-20140418-15:22:06-1773
attr D costprob0.01
attr F nrr
attr R lru
attr a 0.8
attr configname General
attr csize 10
attr ctlg 10^8
attr datetime 20140418-15:22:06
attr experiment General
attr inifile omnetpp.ini
attr iterationvars "$net=simple_scenario, $rep=1, $priceratiovalue=9, $a=0.8, $ctlg=10^8, $F=nrr, $ttl=1000, $D=costprob0.01, $R=lru, $csize=10"
attr iterationvars2 "$net=simple_scenario, $rep=1, $priceratiovalue=9, $a=0.8, $ctlg=10^8, $F=nrr, $ttl=1000, $D=costprob0.01, $R=lru, $csize=10, $repetition=0"
attr measurement "$net=simple_scenario, $rep=1, $priceratiovalue=9, $a=0.8, $ctlg=10^8, $F=nrr, $ttl=1000, $D=costprob0.01, $R=lru, $csize=10"
attr net simple_scenario
attr network networks.${net=simple_scenario}_network
attr priceratiovalue 9
attr processid 1773
attr rep 1
attr repetition 0
attr replication #0
attr resultdir results
attr runnumber 191
attr seedset 1
attr ttl 1000

vector 0  simple_scenario_network.node[0].content_store  hit_node[0]  ETV
0	1001 15138866 1415954 1415954 1 699051 699051 0 0.86307519640853 -nan -nan
0	15139867 15746553 1415954 1415954 699052 1398102 699051 0 0 -nan -nan
0	30886420 16058658 1415954 1415954 1398103 2097153 699051 0 0 -nan -nan
0	46945078 16063023 1415954 1415954 2097154 2796204 699051 0 0 -nan -nan
0	63008101 15927063 1415954 1415954 2796205 3489213 693009 0 0 -nan -nan
vector 1  simple_scenario_network.node[1].content_store  hit_node[1]  ETV
1	78935238 15203131 1415954 1415954 1 699051 699051 0 0.54430379746835 -nan -nan
1	94138369 15761697 1415954 1415954 699052 1398102 699051 0 0 -nan -nan
1	109900066 16068489 1415954 1415954 1398103 2097153 699051 0 0 -nan -nan
1	125968555 16070541 1415954 1415954 2097154 2796204 699051 0 0 -nan -nan
1	142039096 15933246 1415954 1415954 2796205 3489213 693009 0 0 -nan -nan
vector 2  simple_scenario_network.node[2].content_store  hit_node[2]  ETV
2	157972416 15203710 1415954 1415954 1 699051 699051 0 0.5764192139738 -nan -nan
2	173176126 15762081 1415954 1415954 699052 1398102 699051 0 0 -nan -nan
2	188938207 16068342 1415954 1415954 1398103 2097153 699051 0 0 -nan -nan
2	205006549 16070655 1415954 1415954 2097154 2796204 699051 0 0 -nan -nan
2	221077204 15933024 1415954 1415954 2796205 3489213 693009 0 0 -nan -nan
vector 3  simple_scenario_network.node[3].content_store  hit_node[3]  ETV
3	237010302 15203070 1415954 1415954 1 699051 699051 0 0 -nan -nan
3	252213372 15761697 1415954 1415954 699052 1398102 699051 0 0 -nan -nan
3	267975069 16068489 1415954 1415954 1398103 2097153 699051 0 0 -nan -nan
3	284043558 16070541 1415954 1415954 2097154 2796204 699051 0 0 -nan -nan
3	300114099 15933246 1415954 1415954 2796205 3489213 693009 0 0 -nan -nan
vector 4  simple_scenario_network.node[4].content_store  hit_node[4]  ETV
4	316047419 15203508 1415954 1415954 1 699051 699051 0 0 -nan -nan
4	331250927 15762081 1415954 1415954 699052 1398102 699051 0 0 -nan -nan
4	347013008 16068342 1415954 1415954 1398103 2097153 699051 0 0 -nan -nan
4	363081350 16070655 1415954 1415954 2097154 2796204 699051 0 0 -nan -nan
4	379152005 15933024 1415954 1415954 2796205 3489213 693009 0 0 -nan -nan
vector 5  simple_scenario_network.client[0]  hdistance[0]  ETV
5	395085092 13254470 1415954 1415954 1 699051 699051 0 3 129383.01281989 387934.51307178
5	408339562 13681184 1415954 1415954 699052 1398102 699051 0 3 30671.227634946 92011.373293501
5	422020746 13981299 1415954 1415954 1398103 2097153 699051 0 3 19514.808199589 58543.851040079
5	436002045 13981363 1415954 1415954 2097154 2796204 699051 0 3 15149.760190853 45448.563449369
5	449983408 13860306 1415954 1415954 2796205 3489213 693009 0 3 12143.912427775 36431.475419656
