version 2
run General-1-20150520-10:59:46-7268
attr D two_lru
attr F nrr
attr R lru
attr a 1
attr configname General
attr datetime 20150520-10:59:46
attr experiment General
attr inifile omnetpp.ini
attr iterationvars "$net=abilene, $rep=0, $a=1, $F=nrr, $ttl=1000, $D=two_lru, $R=lru"
attr iterationvars2 "$net=abilene, $rep=0, $a=1, $F=nrr, $ttl=1000, $D=two_lru, $R=lru, $repetition=0"
attr measurement "$net=abilene, $rep=0, $a=1, $F=nrr, $ttl=1000, $D=two_lru, $R=lru"
attr net abilene
attr network networks.${net=abilene}_network
attr processid 7268
attr rep 0
attr repetition 0
attr replication #0
attr resultdir results
attr runnumber 1
attr seedset 0
attr ttl 1000

vector 22  abilene_network.node[0].content_store  hit_node[0]  ETV
22	345659	1	1
22	345659	2	0.98958333333333
22	345659	3	0.96052631578947
22	345659	4	0.94827586206897
22	345659	5	0.71875
22	345659	6	0.68965517241379
22	345659	7	0.76923076923077
22	345659	8	0.8
22	345659	9	0.80645161290323
22	345659	10	0.82926829268293
22	345659	11	0.68181818181818
22	345659	12	0.5625
22	345659	13	0.69230769230769
22	345659	14	0.64285714285714
22	345659	15	0.625
22	345659	16	0.73333333333333
22	345659	17	0.6
22	345659	18	0.52941176470588
22	345659	19	0.69230769230769
22	345659	20	0.6
22	345659	21	0.22222222222222
22	345659	22	0.25
22	345659	23	0.53846153846154
22	345659	24	0.28571428571429
22	345659	25	0.6
22	345659	26	0.28571428571429
22	345659	27	0.5
22	345659	28	0.4
22	345659	29	0.625
22	345659	30	0
22	345659	31	0.75
22	345659	32	0.2
22	345659	33	0.4
22	345659	34	0
22	345659	35	0.71428571428571
22	345659	36	0.4
22	345659	37	0.41666666666667
22	345659	38	0.61538461538462
22	345659	39	0.2
22	345659	40	0.66666666666667
22	345659	41	0.2
22	345659	42	0.28571428571429
22	345659	43	0.5
22	345659	44	0.33333333333333
22	345659	45	0.5
22	345659	46	0.66666666666667
22	345659	47	0.375
22	345659	48	0
22	345659	49	0
22	345659	50	0.375
22	345659	51	0
22	345659	52	0.25
22	345659	53	0.4
22	345659	54	0.54545454545455
22	345659	55	0.66666666666667
22	345659	56	0.42857142857143
22	345659	57	0.33333333333333
22	345659	58	0.4
22	345659	59	0
22	345659	60	0
22	345659	61	0.75
22	345659	62	-nan
22	345659	63	0
22	345659	64	-nan
22	345659	65	0.33333333333333
22	345659	66	0.33333333333333
22	345659	67	0.25
22	345659	68	0.5
22	345659	69	0.5
22	345659	70	0
22	345659	71	0
22	345659	72	-nan
22	345659	73	0
22	345659	74	0
22	345659	75	0
22	345659	76	0.2
vector 23  abilene_network.node[1].content_store  hit_node[1]  ETV
23	345659	1	0.98369565217391
23	345659	2	0.86021505376344
23	345659	3	0.8
23	345659	4	0.65217391304348
23	345659	5	0.65789473684211
23	345659	6	0.63414634146341
23	345659	7	0.71052631578947
23	345659	8	0.53333333333333
23	345659	9	0.47619047619048
23	345659	10	0.47619047619048
23	345659	11	0.63888888888889
23	345659	12	0.53846153846154
23	345659	13	0.48148148148148
23	345659	14	0.53571428571429
23	345659	15	0.61764705882353
23	345659	16	0.38888888888889
23	345659	17	0.4
23	345659	18	0.46153846153846
23	345659	19	0.42857142857143
23	345659	20	0.5
23	345659	21	0.53571428571429
23	345659	22	0.3
23	345659	23	0.5
23	345659	24	0.27272727272727
23	345659	25	0.13333333333333
23	345659	26	0.375
23	345659	27	0.33333333333333
23	345659	28	0.3125
23	345659	29	0.45454545454545
23	345659	30	0.33333333333333
23	345659	31	0.22222222222222
23	345659	32	0.33333333333333
23	345659	33	0
23	345659	34	0.44444444444444
23	345659	35	0.2
23	345659	36	0.33333333333333
23	345659	37	0.28571428571429
23	345659	38	0.27272727272727
23	345659	39	0.33333333333333
23	345659	40	0
23	345659	41	0.44444444444444
23	345659	42	0.11111111111111
23	345659	43	0.125
23	345659	44	0.27272727272727
23	345659	45	0.16666666666667
23	345659	46	0.14285714285714
23	345659	47	0.15384615384615
23	345659	48	0.16666666666667
23	345659	49	0.3
23	345659	50	0.125
23	345659	51	0.14285714285714
23	345659	52	0.25
23	345659	53	0
23	345659	54	0.1
23	345659	55	0.16666666666667
23	345659	56	0.125
23	345659	57	0.16666666666667
23	345659	58	0.14285714285714
23	345659	59	0.28
23	345659	60	0.14285714285714
23	345659	61	0
23	345659	62	0.5
23	345659	63	0
23	345659	64	0
23	345659	65	0.28571428571429
23	345659	66	0.14285714285714
23	345659	67	0.26315789473684
23	345659	68	0.125
23	345659	69	0.1
23	345659	70	0.14285714285714
23	345659	71	0.083333333333333
23	345659	72	0
23	345659	73	0.66666666666667
23	345659	74	0.16666666666667
23	345659	75	0.25
23	345659	76	0
vector 24  abilene_network.node[2].content_store  hit_node[2]  ETV
24	345659	1	0.95027624309392
24	345659	2	0.83653846153846
24	345659	3	0.72463768115942
24	345659	4	0.67272727272727
24	345659	5	0.68085106382979
24	345659	6	0.56
24	345659	7	0.61111111111111
24	345659	8	0.35483870967742
24	345659	9	0.44444444444444
24	345659	10	0.38461538461538
24	345659	11	0.25
24	345659	12	0.5
24	345659	13	0.41379310344828
24	345659	14	0.27777777777778
24	345659	15	0.33333333333333
24	345659	16	0.47826086956522
24	345659	17	0.23809523809524
24	345659	18	0.25
24	345659	19	0.25
24	345659	20	0.31818181818182
24	345659	21	0.37037037037037
24	345659	22	0.31578947368421
24	345659	23	0.19230769230769
24	345659	24	0.31818181818182
24	345659	25	0.46428571428571
24	345659	26	0.35294117647059
24	345659	27	0.40909090909091
24	345659	28	0.2
24	345659	29	0.3
24	345659	30	0.29411764705882
24	345659	31	0.15384615384615
24	345659	32	0.2962962962963
24	345659	33	0.41666666666667
24	345659	34	0.11111111111111
24	345659	35	0.28571428571429
24	345659	36	0.3
24	345659	37	0.23529411764706
24	345659	38	0.2
24	345659	39	0.23076923076923
24	345659	40	0.3
24	345659	41	0.0625
24	345659	42	0.16666666666667
24	345659	43	0.36
24	345659	44	0.20833333333333
24	345659	45	0.18181818181818
24	345659	46	0.32142857142857
24	345659	47	0.13333333333333
24	345659	48	0.0625
24	345659	49	0.13333333333333
24	345659	50	0.11111111111111
24	345659	51	0.5
24	345659	52	0.19047619047619
24	345659	53	0.23076923076923
24	345659	54	0.18181818181818
24	345659	55	0.23076923076923
24	345659	56	0.125
24	345659	57	0
24	345659	58	0.2
24	345659	59	0.125
24	345659	60	0
24	345659	61	0.2
24	345659	62	0.25
24	345659	63	0.25
24	345659	64	0.33333333333333
24	345659	65	0.076923076923077
24	345659	66	0
24	345659	67	0.2
24	345659	68	0.15
24	345659	69	0.28571428571429
24	345659	70	0.1
24	345659	71	0.1
24	345659	72	0
24	345659	73	0.125
24	345659	74	0
24	345659	75	0.16666666666667
24	345659	76	0.15789473684211
vector 25  abilene_network.node[3].content_store  hit_node[3]  ETV
25	345659	1	0.97087378640777
25	345659	2	0.8469387755102
25	345659	3	0.71212121212121
25	345659	4	0.56521739130435
25	345659	5	0.57777777777778
25	345659	6	0.71698113207547
25	345659	7	0.33333333333333
25	345659	8	0.51724137931034
25	345659	9	0.575
25	345659	10	0.4
25	345659	11	0.38095238095238
25	345659	12	0.44
25	345659	13	0.62857142857143
25	345659	14	0.4
25	345659	15	0.36
25	345659	16	0.39285714285714
25	345659	17	0.56521739130435
25	345659	18	0.3125
25	345659	19	0.25
25	345659	20	0.35
25	345659	21	0.3448275862069
25	345659	22	0.41176470588235
25	345659	23	0.26086956521739
25	345659	24	0.3125
25	345659	25	0.3125
25	345659	26	0.24
25	345659	27	0.23076923076923
25	345659	28	0.23076923076923
25	345659	29	0.066666666666667
25	345659	30	0.18181818181818
25	345659	31	0.29411764705882
25	345659	32	0.11111111111111
25	345659	33	0
25	345659	34	0.26666666666667
25	345659	35	0.14285714285714
25	345659	36	0.090909090909091
25	345659	37	0.15384615384615
25	345659	38	0.125
25	345659	39	0.17647058823529
25	345659	40	0.28571428571429
25	345659	41	0.33333333333333
25	345659	42	0.29166666666667
25	345659	43	0.16666666666667
25	345659	44	0.14285714285714
25	345659	45	0.2
25	345659	46	0.16666666666667
25	345659	47	0.26666666666667
25	345659	48	0.38461538461538
25	345659	49	0.33333333333333
25	345659	50	0.30434782608696
25	345659	51	0.23076923076923
25	345659	52	0.27272727272727
25	345659	53	0
25	345659	54	0.2
25	345659	55	0.125
25	345659	56	0.22222222222222
25	345659	57	0.25
25	345659	58	0
25	345659	59	0.1
25	345659	60	0.21428571428571
25	345659	61	0.2
25	345659	62	0.1
25	345659	63	0.11111111111111
25	345659	64	0.22222222222222
25	345659	65	0
25	345659	66	0.076923076923077
25	345659	67	0.15384615384615
25	345659	68	0.22222222222222
25	345659	69	0
25	345659	70	0
25	345659	71	0.33333333333333
25	345659	72	0.25
25	345659	73	0.25
25	345659	74	0.33333333333333
25	345659	75	0.1
25	345659	76	0
vector 26  abilene_network.node[4].content_store  hit_node[4]  ETV
26	345659	1	0.99397590361446
26	345659	2	0.98305084745763
26	345659	3	0.85245901639344
26	345659	4	0.81818181818182
26	345659	5	0.86274509803922
26	345659	6	0.71428571428571
26	345659	7	0.65714285714286
26	345659	8	0.74193548387097
26	345659	9	0.67857142857143
26	345659	10	0.5
26	345659	11	0.65
26	345659	12	0.55555555555556
26	345659	13	0.38888888888889
26	345659	14	0.36363636363636
26	345659	15	0.57142857142857
26	345659	16	0.63157894736842
26	345659	17	0.59090909090909
26	345659	18	0.22222222222222
26	345659	19	0.46153846153846
26	345659	20	0.57894736842105
26	345659	21	0.52941176470588
26	345659	22	0.45454545454545
26	345659	23	0.63157894736842
26	345659	24	0.58823529411765
26	345659	25	0.4
26	345659	26	0.38461538461538
26	345659	27	0
26	345659	28	0.4
26	345659	29	0.44444444444444
26	345659	30	0.36363636363636
26	345659	31	0.52941176470588
26	345659	32	0.25
26	345659	33	0.33333333333333
26	345659	34	0.45454545454545
26	345659	35	0.45454545454545
26	345659	36	0.35714285714286
26	345659	37	0
26	345659	38	0.25
26	345659	39	0.29411764705882
26	345659	40	0.1
26	345659	41	0.27272727272727
26	345659	42	0.33333333333333
26	345659	43	0
26	345659	44	0.2
26	345659	45	0
26	345659	46	0
26	345659	47	0.42857142857143
26	345659	48	0.25
26	345659	49	0.3125
26	345659	50	0.43478260869565
26	345659	51	0.14285714285714
26	345659	52	0.25
26	345659	53	0.5
26	345659	54	0.33333333333333
26	345659	55	0.33333333333333
26	345659	56	0.22222222222222
26	345659	57	0.31578947368421
26	345659	58	0.375
26	345659	59	0
26	345659	60	0.33333333333333
26	345659	61	0.16666666666667
26	345659	62	0.22222222222222
26	345659	63	0
26	345659	64	0
26	345659	65	0.15789473684211
26	345659	66	0.4
26	345659	67	0.5
26	345659	68	0.25
26	345659	69	0.25
26	345659	70	0.4
26	345659	71	0.11111111111111
26	345659	72	0.2
26	345659	73	0.2
26	345659	74	0
26	345659	75	0.11111111111111
26	345659	76	0.2
vector 27  abilene_network.node[5].content_store  hit_node[5]  ETV
27	345659	1	0.99382716049383
27	345659	2	0.96739130434783
27	345659	3	0.92647058823529
27	345659	4	0.95833333333333
27	345659	5	0.89583333333333
27	345659	6	0.6969696969697
27	345659	7	0.86363636363636
27	345659	8	0.84615384615385
27	345659	9	0.46153846153846
27	345659	10	0.69230769230769
27	345659	11	0.71428571428571
27	345659	12	0.64705882352941
27	345659	13	0.54545454545455
27	345659	14	0.75
27	345659	15	0.55
27	345659	16	0.68
27	345659	17	0.75
27	345659	18	0.625
27	345659	19	0.44444444444444
27	345659	20	0.57142857142857
27	345659	21	0.25
27	345659	22	0.58823529411765
27	345659	23	0.28571428571429
27	345659	24	0.5
27	345659	25	0.54545454545455
27	345659	26	0.4
27	345659	27	0.16666666666667
27	345659	28	0.36363636363636
27	345659	29	0.44444444444444
27	345659	30	0.58333333333333
27	345659	31	0.66666666666667
27	345659	32	0.42857142857143
27	345659	33	0.16666666666667
27	345659	34	0.25
27	345659	35	0.45454545454545
27	345659	36	0.44444444444444
27	345659	37	0
27	345659	38	0.2
27	345659	39	0.25
27	345659	40	0.5
27	345659	41	0.5
27	345659	42	0.5
27	345659	43	0.25
27	345659	44	0.16666666666667
27	345659	45	-nan
27	345659	46	0.33333333333333
27	345659	47	0.36363636363636
27	345659	48	0.4
27	345659	49	0.42105263157895
27	345659	50	0.25
27	345659	51	0.25
27	345659	52	0.42857142857143
27	345659	53	0.44444444444444
27	345659	54	0.44444444444444
27	345659	55	0
27	345659	56	0.3125
27	345659	57	0
27	345659	58	0
27	345659	59	0.2
27	345659	60	0.66666666666667
27	345659	61	0.44444444444444
27	345659	62	0
27	345659	63	0.66666666666667
27	345659	64	0.5
27	345659	65	0.4
27	345659	66	0.42857142857143
27	345659	67	0.2
27	345659	68	0
27	345659	69	0
27	345659	70	0.4
27	345659	71	0.5
27	345659	72	0.375
27	345659	73	0
27	345659	74	0.38888888888889
27	345659	75	0.16666666666667
27	345659	76	0.25
vector 28  abilene_network.node[6].content_store  hit_node[6]  ETV
28	345659	1	1
28	345659	2	0.97802197802198
28	345659	3	0.8955223880597
28	345659	4	0.75555555555556
28	345659	5	0.75
28	345659	6	0.72972972972973
28	345659	7	0.68965517241379
28	345659	8	0.68421052631579
28	345659	9	0.58333333333333
28	345659	10	0.62068965517241
28	345659	11	0.66666666666667
28	345659	12	0.72
28	345659	13	0.69230769230769
28	345659	14	0.5
28	345659	15	0.61904761904762
28	345659	16	0.375
28	345659	17	0.46666666666667
28	345659	18	0.61111111111111
28	345659	19	0.625
28	345659	20	0.38461538461538
28	345659	21	0.64285714285714
28	345659	22	0.35714285714286
28	345659	23	0.5
28	345659	24	0.38888888888889
28	345659	25	0.5
28	345659	26	0.64285714285714
28	345659	27	0.33333333333333
28	345659	28	0.5
28	345659	29	0.5
28	345659	30	0.25
28	345659	31	0.57142857142857
28	345659	32	0.53333333333333
28	345659	33	0.5
28	345659	34	0.22222222222222
28	345659	35	0.5
28	345659	36	0.14285714285714
28	345659	37	0.57142857142857
28	345659	38	0.36842105263158
28	345659	39	0.25
28	345659	40	0.28571428571429
28	345659	41	0.28571428571429
28	345659	42	0.28571428571429
28	345659	43	0.5
28	345659	44	0.25
28	345659	45	0
28	345659	46	0
28	345659	47	0.5
28	345659	48	0
28	345659	49	0
28	345659	50	0.33333333333333
28	345659	51	0.6
28	345659	52	0.5
28	345659	53	0.14285714285714
28	345659	54	0.25
28	345659	55	0.16666666666667
28	345659	56	0.33333333333333
28	345659	57	0.33333333333333
28	345659	58	0.36363636363636
28	345659	59	0.33333333333333
28	345659	60	0
28	345659	61	0.35294117647059
28	345659	62	0
28	345659	63	0
28	345659	64	0
28	345659	65	0
28	345659	66	0.5
28	345659	67	0.33333333333333
28	345659	68	0.375
28	345659	69	0
28	345659	70	-nan
28	345659	71	0
28	345659	72	0.16666666666667
28	345659	73	0
28	345659	74	0.22222222222222
28	345659	75	0.33333333333333
28	345659	76	0
vector 29  abilene_network.node[7].content_store  hit_node[7]  ETV
29	345659	1	0.98076923076923
29	345659	2	0.91208791208791
29	345659	3	0.87179487179487
29	345659	4	0.77586206896552
29	345659	5	0.81818181818182
29	345659	6	0.74
29	345659	7	0.75
29	345659	8	0.46428571428571
29	345659	9	0.65789473684211
29	345659	10	0.52
29	345659	11	0.51851851851852
29	345659	12	0.5
29	345659	13	0.52380952380952
29	345659	14	0.28571428571429
29	345659	15	0.67567567567568
29	345659	16	0.60869565217391
29	345659	17	0.44444444444444
29	345659	18	0.47619047619048
29	345659	19	0.30769230769231
29	345659	20	0.47368421052632
29	345659	21	0.5
29	345659	22	0.59090909090909
29	345659	23	0.33333333333333
29	345659	24	0.5
29	345659	25	0.42105263157895
29	345659	26	0.38888888888889
29	345659	27	0.61538461538462
29	345659	28	0.18181818181818
29	345659	29	0.42857142857143
29	345659	30	0.2
29	345659	31	0.36363636363636
29	345659	32	0.4
29	345659	33	0
29	345659	34	0.38461538461538
29	345659	35	0.54166666666667
29	345659	36	0.22222222222222
29	345659	37	0.14285714285714
29	345659	38	0.3125
29	345659	39	0.42857142857143
29	345659	40	0.35714285714286
29	345659	41	0.22222222222222
29	345659	42	0.33333333333333
29	345659	43	0
29	345659	44	0.3
29	345659	45	0.375
29	345659	46	0.16666666666667
29	345659	47	0.625
29	345659	48	0.3
29	345659	49	0.2
29	345659	50	0.25
29	345659	51	0
29	345659	52	0.5
29	345659	53	0.36363636363636
29	345659	54	0.22222222222222
29	345659	55	0
29	345659	56	0.16666666666667
29	345659	57	0.4
29	345659	58	0.21428571428571
29	345659	59	0.33333333333333
29	345659	60	0.40909090909091
29	345659	61	0.14285714285714
29	345659	62	0.5
29	345659	63	0.45833333333333
29	345659	64	0
29	345659	65	-nan
29	345659	66	0
29	345659	67	0
29	345659	68	0.11111111111111
29	345659	69	0
29	345659	70	-nan
29	345659	71	0.375
29	345659	72	0.14285714285714
29	345659	73	0.2
29	345659	74	0
29	345659	75	0.33333333333333
29	345659	76	0.25
vector 30  abilene_network.node[8].content_store  hit_node[8]  ETV
30	345659	1	0.98963730569948
30	345659	2	0.96
30	345659	3	0.82191780821918
30	345659	4	0.85074626865672
30	345659	5	0.71739130434783
30	345659	6	0.675
30	345659	7	0.70731707317073
30	345659	8	0.73333333333333
30	345659	9	0.66666666666667
30	345659	10	0.70731707317073
30	345659	11	0.67741935483871
30	345659	12	0.40909090909091
30	345659	13	0.67567567567568
30	345659	14	0.41176470588235
30	345659	15	0.55
30	345659	16	0.52
30	345659	17	0.46153846153846
30	345659	18	0.54166666666667
30	345659	19	0.4
30	345659	20	0.54166666666667
30	345659	21	0.5
30	345659	22	0.66666666666667
30	345659	23	0.5625
30	345659	24	0.60869565217391
30	345659	25	0.30769230769231
30	345659	26	0.57894736842105
30	345659	27	0.4
30	345659	28	0.375
30	345659	29	0.3125
30	345659	30	0.42857142857143
30	345659	31	0.125
30	345659	32	0
30	345659	33	0.25
30	345659	34	0.41666666666667
30	345659	35	0.14285714285714
30	345659	36	0.4
30	345659	37	0.35714285714286
30	345659	38	0.14285714285714
30	345659	39	0.28571428571429
30	345659	40	0.18181818181818
30	345659	41	0.35294117647059
30	345659	42	0.45454545454545
30	345659	43	0.3125
30	345659	44	0.11111111111111
30	345659	45	0.5
30	345659	46	0.5625
30	345659	47	0
30	345659	48	0.36363636363636
30	345659	49	0.33333333333333
30	345659	50	0.22222222222222
30	345659	51	0.125
30	345659	52	0
30	345659	53	0.29411764705882
30	345659	54	0.42105263157895
30	345659	55	0.33333333333333
30	345659	56	0.125
30	345659	57	0.2
30	345659	58	0.3
30	345659	59	0.5
30	345659	60	0.2
30	345659	61	0.5
30	345659	62	0.1
30	345659	63	0.1
30	345659	64	0.22222222222222
30	345659	65	0
30	345659	66	0
30	345659	67	0
30	345659	68	0
30	345659	69	0
30	345659	70	0.33333333333333
30	345659	71	0
30	345659	72	0.33333333333333
30	345659	73	0
30	345659	74	0
30	345659	75	0
30	345659	76	0.33333333333333
vector 31  abilene_network.node[9].content_store  hit_node[9]  ETV
31	345659	1	0.99444444444444
31	345659	2	0.94318181818182
31	345659	3	0.94444444444444
31	345659	4	0.86538461538462
31	345659	5	0.85106382978723
31	345659	6	0.8
31	345659	7	0.73333333333333
31	345659	8	0.65217391304348
31	345659	9	0.55
31	345659	10	0.74193548387097
31	345659	11	0.57894736842105
31	345659	12	0.82352941176471
31	345659	13	0.4
31	345659	14	0.65217391304348
31	345659	15	0.46666666666667
31	345659	16	0.75
31	345659	17	0.55555555555556
31	345659	18	0.54545454545455
31	345659	19	0.71875
31	345659	20	0.5
31	345659	21	0.53333333333333
31	345659	22	0.52941176470588
31	345659	23	0.52941176470588
31	345659	24	0.61904761904762
31	345659	25	0.28571428571429
31	345659	26	0.5
31	345659	27	0.3
31	345659	28	0.33333333333333
31	345659	29	0.25
31	345659	30	0.16666666666667
31	345659	31	0.33333333333333
31	345659	32	0.33333333333333
31	345659	33	0.46153846153846
31	345659	34	0.66666666666667
31	345659	35	0.5
31	345659	36	0.47058823529412
31	345659	37	0.55555555555556
31	345659	38	0.16666666666667
31	345659	39	0.25
31	345659	40	0.4
31	345659	41	0.26315789473684
31	345659	42	0.16666666666667
31	345659	43	0.33333333333333
31	345659	44	0.77777777777778
31	345659	45	0.2
31	345659	46	0.4
31	345659	47	0.57142857142857
31	345659	48	0.4
31	345659	49	0.75
31	345659	50	0.42857142857143
31	345659	51	0.14285714285714
31	345659	52	0.2
31	345659	53	-nan
31	345659	54	0.33333333333333
31	345659	55	0.28571428571429
31	345659	56	0.2
31	345659	57	0
31	345659	58	0.125
31	345659	59	0.25
31	345659	60	0.33333333333333
31	345659	61	0.25
31	345659	62	0.3125
31	345659	63	0.22222222222222
31	345659	64	0.14285714285714
31	345659	65	0
31	345659	66	0
31	345659	67	0.4
31	345659	68	0.33333333333333
31	345659	69	0.2
31	345659	70	0
31	345659	71	0.16666666666667
31	345659	72	0
31	345659	73	0.21428571428571
31	345659	74	0.33333333333333
31	345659	75	0
31	345659	76	0
vector 32  abilene_network.node[10].content_store  hit_node[10]  ETV
32	345659	1	1
32	345659	2	0.97802197802198
32	345659	3	0.92424242424242
32	345659	4	0.80392156862745
32	345659	5	0.88888888888889
32	345659	6	0.92592592592593
32	345659	7	0.81395348837209
32	345659	8	0.77142857142857
32	345659	9	0.87179487179487
32	345659	10	0.63636363636364
32	345659	11	0.5625
32	345659	12	0.70833333333333
32	345659	13	0.71428571428571
32	345659	14	0.66666666666667
32	345659	15	0.65
32	345659	16	0.5
32	345659	17	0.25
32	345659	18	0.72727272727273
32	345659	19	0.61111111111111
32	345659	20	0.33333333333333
32	345659	21	0.55555555555556
32	345659	22	0.625
32	345659	23	0.4375
32	345659	24	0.30769230769231
32	345659	25	0.55555555555556
32	345659	26	0.53846153846154
32	345659	27	0.76666666666667
32	345659	28	0.58823529411765
32	345659	29	0.42857142857143
32	345659	30	0.63636363636364
32	345659	31	0.45454545454545
32	345659	32	0.63636363636364
32	345659	33	0.5
32	345659	34	0.3
32	345659	35	0.125
32	345659	36	0.47826086956522
32	345659	37	0.83333333333333
32	345659	38	0.375
32	345659	39	0.55555555555556
32	345659	40	0.4
32	345659	41	0.3
32	345659	42	0.2
32	345659	43	0.5
32	345659	44	0.28571428571429
32	345659	45	0.47826086956522
32	345659	46	0
32	345659	47	0
32	345659	48	0.33333333333333
32	345659	49	0.33333333333333
32	345659	50	0.16666666666667
32	345659	51	0.4
32	345659	52	0.625
32	345659	53	0
32	345659	54	0.4
32	345659	55	0
32	345659	56	0.25
32	345659	57	-nan
32	345659	58	0.44444444444444
32	345659	59	0.14285714285714
32	345659	60	0
32	345659	61	0
32	345659	62	0
32	345659	63	0.14285714285714
32	345659	64	0.33333333333333
32	345659	65	0.5
32	345659	66	0.2
32	345659	67	0.4
32	345659	68	0.42857142857143
32	345659	69	0.42857142857143
32	345659	70	0
32	345659	71	0.35
32	345659	72	0
32	345659	73	0.25
32	345659	74	0
32	345659	75	0.5
32	345659	76	0
vector 33  abilene_network.client[0]  hdistance[0]  ETV
33	345659	1	0
33	345659	2	0.011363636363636
33	345659	3	0.042857142857143
33	345659	4	0.063829787234043
33	345659	5	0.36
33	345659	6	0.42307692307692
33	345659	7	0.33333333333333
33	345659	8	0.52631578947368
33	345659	9	0.25
33	345659	10	0.25925925925926
33	345659	11	0.5
33	345659	12	0.66666666666667
33	345659	13	0.625
33	345659	14	0.75
33	345659	15	0.5
33	345659	16	0.6
33	345659	17	0.57142857142857
33	345659	18	0.81818181818182
33	345659	19	0.75
33	345659	20	1.2727272727273
33	345659	21	1
33	345659	22	2
33	345659	23	1.5
33	345659	24	1.8333333333333
33	345659	25	1
33	345659	26	1.6666666666667
33	345659	27	0.85714285714286
33	345659	28	2.25
33	345659	29	1.5
33	345659	30	1
33	345659	31	0
33	345659	32	2
33	345659	33	1.75
33	345659	34	1.5
33	345659	35	2
33	345659	36	2
33	345659	37	0.4
33	345659	38	1.75
33	345659	39	3.75
33	345659	40	1.625
33	345659	41	2.5
33	345659	42	3
33	345659	43	1.6666666666667
33	345659	44	2
33	345659	45	1.1428571428571
33	345659	46	0.66666666666667
33	345659	47	0.5
33	345659	48	2
33	345659	49	2
33	345659	50	2.2857142857143
33	345659	51	2.5
33	345659	52	1.6666666666667
33	345659	53	3.3333333333333
33	345659	54	2.1428571428571
33	345659	55	0.33333333333333
33	345659	56	3.75
33	345659	57	4.25
33	345659	58	2.6666666666667
33	345659	59	1.5
33	345659	60	1
33	345659	61	2
33	345659	62	0
33	345659	63	1
33	345659	64	0
33	345659	65	1.5
33	345659	66	2
33	345659	67	1
33	345659	68	2
33	345659	69	2
33	345659	70	2
33	345659	71	1
33	345659	72	0
33	345659	73	1.5
33	345659	74	4.5
33	345659	75	4
33	345659	76	3
vector 34  abilene_network.client[1]  hdistance[1]  ETV
34	345659	1	0.016483516483516
34	345659	2	0.14942528735632
34	345659	3	0.22222222222222
34	345659	4	0.38095238095238
34	345659	5	0.37037037037037
34	345659	6	0.45454545454545
34	345659	7	0.42307692307692
34	345659	8	0.73684210526316
34	345659	9	0.6875
34	345659	10	0.57142857142857
34	345659	11	0.40740740740741
34	345659	12	0.9375
34	345659	13	1.0555555555556
34	345659	14	0.55555555555556
34	345659	15	0.5
34	345659	16	0.9
34	345659	17	0.88888888888889
34	345659	18	0.70588235294118
34	345659	19	0.9
34	345659	20	0.78571428571429
34	345659	21	0.625
34	345659	22	0.75
34	345659	23	0.625
34	345659	24	1.2857142857143
34	345659	25	1.4
34	345659	26	1.1666666666667
34	345659	27	0.66666666666667
34	345659	28	1.4285714285714
34	345659	29	1.6666666666667
34	345659	30	1
34	345659	31	1
34	345659	32	0.66666666666667
34	345659	33	1.3333333333333
34	345659	34	0.375
34	345659	35	2.6666666666667
34	345659	36	0.8
34	345659	37	0.75
34	345659	38	1.6
34	345659	39	1.3333333333333
34	345659	40	1
34	345659	41	0.8
34	345659	42	2
34	345659	43	0.8
34	345659	44	1
34	345659	45	1
34	345659	46	1.3333333333333
34	345659	47	1.5
34	345659	48	2.5
34	345659	49	1
34	345659	50	1.6666666666667
34	345659	51	1
34	345659	52	1
34	345659	53	2.25
34	345659	54	2
34	345659	55	1.5
34	345659	56	0.66666666666667
34	345659	57	2.6666666666667
34	345659	58	2
34	345659	59	0.8
34	345659	60	2.8
34	345659	61	3.5
34	345659	62	2
34	345659	63	2
34	345659	64	1.5
34	345659	65	2.5
34	345659	66	0.5
34	345659	67	0.75
34	345659	68	1.6666666666667
34	345659	69	1.2
34	345659	70	1
34	345659	71	1.3333333333333
34	345659	72	4
34	345659	73	2
34	345659	74	0
34	345659	75	0
34	345659	76	2
vector 35  abilene_network.client[2]  hdistance[2]  ETV
35	345659	1	0.05
35	345659	2	0.18085106382979
35	345659	3	0.31034482758621
35	345659	4	0.3953488372093
35	345659	5	0.52941176470588
35	345659	6	0.53658536585366
35	345659	7	0.5
35	345659	8	0.95652173913043
35	345659	9	0.6875
35	345659	10	1.1111111111111
35	345659	11	0.90909090909091
35	345659	12	0.88888888888889
35	345659	13	0.5625
35	345659	14	0.75
35	345659	15	0.90909090909091
35	345659	16	0.66666666666667
35	345659	17	1.3333333333333
35	345659	18	1.25
35	345659	19	1.2222222222222
35	345659	20	1.1
35	345659	21	0.92307692307692
35	345659	22	1.1818181818182
35	345659	23	1.3571428571429
35	345659	24	0.5
35	345659	25	0.42857142857143
35	345659	26	0.88888888888889
35	345659	27	1.0833333333333
35	345659	28	1.5
35	345659	29	1.8181818181818
35	345659	30	1.1666666666667
35	345659	31	1.6666666666667
35	345659	32	0.5
35	345659	33	0.33333333333333
35	345659	34	1.4
35	345659	35	1.4285714285714
35	345659	36	1
35	345659	37	1.6666666666667
35	345659	38	1
35	345659	39	0.33333333333333
35	345659	40	1.25
35	345659	41	1
35	345659	42	2
35	345659	43	0.57142857142857
35	345659	44	0.66666666666667
35	345659	45	1.8
35	345659	46	1
35	345659	47	1.5
35	345659	48	1.1428571428571
35	345659	49	2
35	345659	50	2.1428571428571
35	345659	51	0.33333333333333
35	345659	52	0.83333333333333
35	345659	53	1.25
35	345659	54	1.5
35	345659	55	0
35	345659	56	4
35	345659	57	1.5
35	345659	58	2
35	345659	59	1.3333333333333
35	345659	60	3
35	345659	61	0
35	345659	62	0
35	345659	63	1.6666666666667
35	345659	64	0.75
35	345659	65	2.6666666666667
35	345659	66	1
35	345659	67	1.3333333333333
35	345659	68	0.6
35	345659	69	1
35	345659	70	2
35	345659	71	2
35	345659	72	3
35	345659	73	2
35	345659	74	4
35	345659	75	1.4285714285714
35	345659	76	1
vector 36  abilene_network.client[3]  hdistance[3]  ETV
36	345659	1	0.029411764705882
36	345659	2	0.17241379310345
36	345659	3	0.36363636363636
36	345659	4	0.48780487804878
36	345659	5	0.54285714285714
36	345659	6	0.38235294117647
36	345659	7	0.8
36	345659	8	0.63636363636364
36	345659	9	0.45454545454545
36	345659	10	0.78571428571429
36	345659	11	0.92307692307692
36	345659	12	0.88235294117647
36	345659	13	0.57142857142857
36	345659	14	0.625
36	345659	15	0.90909090909091
36	345659	16	0.9
36	345659	17	0.25
36	345659	18	1
36	345659	19	1.7777777777778
36	345659	20	1.2222222222222
36	345659	21	1.1428571428571
36	345659	22	1.3333333333333
36	345659	23	1.4
36	345659	24	1.1111111111111
36	345659	25	1
36	345659	26	0.85714285714286
36	345659	27	2
36	345659	28	1
36	345659	29	1
36	345659	30	3.5
36	345659	31	1.1428571428571
36	345659	32	1.1428571428571
36	345659	33	2
36	345659	34	0.75
36	345659	35	1
36	345659	36	2.5
36	345659	37	2.2857142857143
36	345659	38	2.3333333333333
36	345659	39	1.2
36	345659	40	2
36	345659	41	2.5
36	345659	42	1
36	345659	43	2
36	345659	44	1.25
36	345659	45	1.5
36	345659	46	1.3333333333333
36	345659	47	1
36	345659	48	0.66666666666667
36	345659	49	0
36	345659	50	1.2857142857143
36	345659	51	1.5
36	345659	52	1.75
36	345659	53	1
36	345659	54	1
36	345659	55	3
36	345659	56	0.66666666666667
36	345659	57	0.8
36	345659	58	2
36	345659	59	1.3333333333333
36	345659	60	1.3333333333333
36	345659	61	1
36	345659	62	3.5
36	345659	63	1.5
36	345659	64	1.25
36	345659	65	1.8
36	345659	66	1.6666666666667
36	345659	67	2.6
36	345659	68	2
36	345659	69	1.5
36	345659	70	2
36	345659	71	1.6666666666667
36	345659	72	2
36	345659	73	3
36	345659	74	2
36	345659	75	1
36	345659	76	2
vector 37  abilene_network.client[4]  hdistance[4]  ETV
37	345659	1	0.0060606060606061
37	345659	2	0.017857142857143
37	345659	3	0.17307692307692
37	345659	4	0.23255813953488
37	345659	5	0.19047619047619
37	345659	6	0.52
37	345659	7	0.44444444444444
37	345659	8	0.34782608695652
37	345659	9	0.94444444444444
37	345659	10	0.84615384615385
37	345659	11	0.5
37	345659	12	0.54545454545455
37	345659	13	1.3846153846154
37	345659	14	0.88888888888889
37	345659	15	0.9
37	345659	16	0.5
37	345659	17	0.9375
37	345659	18	1.7142857142857
37	345659	19	1.2
37	345659	20	0.63636363636364
37	345659	21	1
37	345659	22	1
37	345659	23	1.7777777777778
37	345659	24	0.7
37	345659	25	1.5
37	345659	26	1
37	345659	27	1
37	345659	28	0.6
37	345659	29	1.6666666666667
37	345659	30	1.1666666666667
37	345659	31	0.77777777777778
37	345659	32	1
37	345659	33	0
37	345659	34	1.6
37	345659	35	1.7142857142857
37	345659	36	2.5555555555556
37	345659	37	4.3333333333333
37	345659	38	2
37	345659	39	1
37	345659	40	1.1666666666667
37	345659	41	2.75
37	345659	42	1.4
37	345659	43	1.5
37	345659	44	1.8333333333333
37	345659	45	3
37	345659	46	1.5
37	345659	47	1.4444444444444
37	345659	48	1.6
37	345659	49	1.1666666666667
37	345659	50	0.2
37	345659	51	2.25
37	345659	52	1.5
37	345659	53	2.6666666666667
37	345659	54	2.25
37	345659	55	4.5
37	345659	56	2
37	345659	57	0.33333333333333
37	345659	58	1.7142857142857
37	345659	59	3.5
37	345659	60	2
37	345659	61	1.5
37	345659	62	3.125
37	345659	63	2
37	345659	64	3
37	345659	65	1
37	345659	66	3.5
37	345659	67	1.5
37	345659	68	3
37	345659	69	1.5
37	345659	70	0
37	345659	71	3.125
37	345659	72	1.5
37	345659	73	3
37	345659	74	2
37	345659	75	1.8
37	345659	76	2