version 2
run General-1-20150602-11:31:41-4093
attr D lcd
attr F spr
attr R lru
attr a 0.5
attr configname General
attr datetime 20150602-11:31:41
attr experiment General
attr inifile omnetpp.ini.video
attr iterationvars "$net=video_simple_scenario, $rep=0, $a=0.5, $F=spr, $ttl=1000, $D=lcd, $R=lru"
attr iterationvars2 "$net=video_simple_scenario, $rep=0, $a=0.5, $F=spr, $ttl=1000, $D=lcd, $R=lru, $repetition=0"
attr measurement "$net=video_simple_scenario, $rep=0, $a=0.5, $F=spr, $ttl=1000, $D=lcd, $R=lru"
attr net video_simple_scenario
attr network networks.${net=video_simple_scenario}_network
attr processid 4093
attr rep 0
attr repetition 0
attr replication #0
attr resultdir results
attr runnumber 1
attr seedset 0
attr ttl 1000

vector 3  video_simple_scenario_network.node[0].content_store  hit_node[0]  ETV
3	949346	1	0
3	949346	2	0
3	949346	3	0
3	949346	4	0
3	949346	5	0
3	949346	6	0
3	949346	7	0
3	949346	8	0
3	949346	9	0
3	949346	10	0
3	949346	11	0
3	949346	12	0
3	949346	13	0
3	949346	14	0
3	949346	15	0
3	949346	16	0
3	949346	17	0
3	949346	18	0
3	949346	19	0
3	949346	20	0
3	949346	21	0
3	949346	22	0
3	949346	23	0
3	949346	24	0
3	949346	25	0
3	949346	26	0
3	949346	27	0
3	949346	28	0
3	949346	29	0
3	949346	30	0
3	949346	31	0
3	949346	32	0
3	949346	33	0
3	949346	34	0
3	949346	35	0
3	949346	36	0
3	949346	37	0
3	949346	38	0
3	949346	39	0
3	949346	40	0
3	949346	41	0
3	949346	42	0
3	949346	43	0
3	949346	44	0
3	949346	45	0
3	949346	46	0
3	949346	47	0
3	949346	48	0
3	949346	49	0
3	949346	50	0
3	949346	51	0
3	949346	52	0
3	949346	53	0
3	949346	54	0
3	949346	55	0
3	949346	56	0
3	949346	57	0
3	949346	58	0
3	949346	59	0
3	949346	60	0
3	949346	61	0
3	949346	62	0
3	949346	63	0
3	949346	64	0
3	949346	65	0
3	949346	66	0
3	949346	67	0
3	949346	68	0
3	949346	69	0
3	949346	70	0
3	949346	71	0
3	949346	72	0
3	949346	73	0
3	949346	74	0
3	949346	75	0
3	949346	76	0
3	949346	77	0
3	949346	78	0
3	949346	79	0
3	949346	80	0
3	949346	81	0
3	949346	82	0
3	949346	83	0
3	949346	84	0
3	949346	85	0
3	949346	86	0
3	949346	87	0
3	949346	88	0
3	949346	89	0
3	949346	90	0
3	949346	91	0
3	949346	92	0
3	949346	93	0
3	949346	94	0
3	949346	95	0
3	949346	96	0
3	949346	97	0
3	949346	98	0
3	949346	99	0
3	949346	100	0
3	949346	101	0
3	949346	102	0
3	949346	103	0
3	949346	104	0
3	949346	105	0
3	949346	106	0
3	949346	107	0
3	949346	108	0
3	949346	109	0
3	949346	110	0
3	949346	111	0
3	949346	112	0
3	949346	113	0
3	949346	114	0
3	949346	115	0
3	949346	116	0
3	949346	117	0
3	949346	118	0
3	949346	119	0
3	949346	120	0
3	949346	121	0
3	949346	122	0
3	949346	123	0
3	949346	124	0
3	949346	125	0
3	949346	126	0
3	949346	127	0
3	949346	128	0
3	949346	129	0
3	949346	130	0
3	949346	131	0
3	949346	132	0
3	949346	133	0
3	949346	134	0
3	949346	135	0
3	949346	136	0
3	949346	137	0
3	949346	138	0
3	949346	139	0
3	949346	140	0
3	949346	141	0
3	949346	142	0
3	949346	143	0
3	949346	144	0
3	949346	145	0
3	949346	146	0
3	949346	147	0
3	949346	148	0
3	949346	149	0
3	949346	150	0
3	949346	151	0
3	949346	152	0
3	949346	153	0
3	949346	154	0
3	949346	155	0
3	949346	156	0
3	949346	157	0
3	949346	158	0
3	949346	159	0
3	949346	160	0
3	949346	161	0
3	949346	162	0
3	949346	163	0
3	949346	164	0
3	949346	165	0
3	949346	166	0
3	949346	167	0
3	949346	168	0
3	949346	169	0
3	949346	170	0
3	949346	171	0
3	949346	172	0
3	949346	173	0
3	949346	174	0
3	949346	175	0
3	949346	176	0
3	949346	177	0
3	949346	178	0
3	949346	179	0
3	949346	180	0
3	949346	181	0
3	949346	182	0
3	949346	183	0
3	949346	184	0
3	949346	185	0
3	949346	186	0
3	949346	187	0
3	949346	188	0
3	949346	189	0
3	949346	190	0
3	949346	191	0
3	949346	192	0
3	949346	193	0
3	949346	194	0
3	949346	195	0
3	949346	196	0
3	949346	197	0
3	949346	198	0
3	949346	199	0
3	949346	200	0
3	949346	201	0
3	949346	202	0
3	949346	203	0
3	949346	204	0
3	949346	205	0
3	949346	206	0
3	949346	207	0
3	949346	208	0
3	949346	209	0
3	949346	210	0
3	949346	211	0
3	949346	212	0
3	949346	213	0
3	949346	214	0
3	949346	215	0
3	949346	216	0
3	949346	217	0
3	949346	218	0
3	949346	219	0
3	949346	220	0
3	949346	221	0
3	949346	222	0
3	949346	223	0
3	949346	224	0
3	949346	225	0
3	949346	226	0
3	949346	227	0
3	949346	228	0
3	949346	229	0
3	949346	230	0
3	949346	231	0
3	949346	232	0
3	949346	233	0
3	949346	234	0
3	949346	235	0
3	949346	236	0
3	949346	237	0
3	949346	238	0
3	949346	239	0
3	949346	240	0
3	949346	241	0
3	949346	242	0
3	949346	243	0
3	949346	244	0
3	949346	245	0
3	949346	246	0
3	949346	247	0
3	949346	248	0
3	949346	249	0
3	949346	250	0
3	949346	251	0
3	949346	252	0
3	949346	253	0
3	949346	254	0
3	949346	255	0
3	949346	256	0
3	949346	257	0
3	949346	258	0
3	949346	259	0
3	949346	260	0
3	949346	261	0
3	949346	262	0
3	949346	263	0
3	949346	264	0
3	949346	265	0
3	949346	266	0
3	949346	267	0
3	949346	268	0
3	949346	269	0
3	949346	270	0
3	949346	271	0
3	949346	272	0
3	949346	273	0
3	949346	274	0
3	949346	275	0
3	949346	276	0
3	949346	277	0
3	949346	278	0
3	949346	279	0
3	949346	280	0
3	949346	281	0
3	949346	282	0
3	949346	283	0
3	949346	284	0
3	949346	285	0
3	949346	286	0
3	949346	287	0
3	949346	288	0
3	949346	289	0
3	949346	290	0
3	949346	291	0
3	949346	292	0
3	949346	293	0
3	949346	294	0
3	949346	295	0
3	949346	296	0
3	949346	297	0
3	949346	298	0
3	949346	299	0
3	949346	300	0
3	949346	301	0
3	949346	302	0
3	949346	303	0
3	949346	304	0
3	949346	305	0
3	949346	306	0
3	949346	307	0
3	949346	308	0
3	949346	309	0
3	949346	310	0
3	949346	311	0
3	949346	312	0
3	949346	313	0
3	949346	314	0
3	949346	315	0
3	949346	316	0
3	949346	317	0
3	949346	318	0
3	949346	319	0
3	949346	320	0
3	949346	321	0
3	949346	322	0
3	949346	323	0
3	949346	324	0
3	949346	325	0
3	949346	326	0
3	949346	327	0
3	949346	328	0
3	949346	329	0
3	949346	330	0
3	949346	331	0
3	949346	332	0
3	949346	333	0
3	949346	334	0
3	949346	335	0
3	949346	336	0
3	949346	337	0
3	949346	338	0
3	949346	339	0
3	949346	340	0
3	949346	341	0
3	949346	342	0
3	949346	343	0
3	949346	344	0
3	949346	345	0
3	949346	346	0
3	949346	347	0
3	949346	348	0
3	949346	349	0
3	949346	350	0
3	949346	351	0
3	949346	352	0
3	949346	353	0
3	949346	354	0
3	949346	355	0
3	949346	356	0
3	949346	357	0
3	949346	358	0
3	949346	359	0
3	949346	360	0
3	949346	361	0
3	949346	362	0
3	949346	363	0
3	949346	364	0
3	949346	365	0
3	949346	366	0
3	949346	367	0
3	949346	368	0
3	949346	369	0
3	949346	370	0
3	949346	371	0
3	949346	372	0
3	949346	373	0
3	949346	374	0
3	949346	375	0
3	949346	376	0
3	949346	377	0
3	949346	378	0
3	949346	379	0
3	949346	380	0
3	949346	381	0
3	949346	382	0
3	949346	383	0
3	949346	384	0
3	949346	385	0
3	949346	386	0
3	949346	387	0
3	949346	388	0
3	949346	389	0
3	949346	390	0
3	949346	391	0
3	949346	392	0
3	949346	393	0
3	949346	394	0
3	949346	395	0
3	949346	396	0
3	949346	397	0
3	949346	398	0
3	949346	399	0
3	949346	400	0
3	949346	401	0
3	949346	402	0
3	949346	403	0
3	949346	404	0
3	949346	405	0
3	949346	406	0
3	949346	407	0
3	949346	408	0
3	949346	409	0
3	949346	410	0
3	949346	411	0
3	949346	412	0
3	949346	413	0
3	949346	414	0
3	949346	415	0
3	949346	416	0
3	949346	417	0
3	949346	418	0
3	949346	419	0
3	949346	420	0
3	949346	421	0
3	949346	422	0
3	949346	423	0
3	949346	424	0
3	949346	425	0
3	949346	426	0
3	949346	427	0
3	949346	428	0
3	949346	429	0
3	949346	430	0
3	949346	431	0
3	949346	432	0
3	949346	433	0
3	949346	434	0
3	949346	435	0
3	949346	436	0
3	949346	437	0
3	949346	438	0
3	949346	439	0
3	949346	440	0
3	949346	441	0
3	949346	442	0
3	949346	443	0
3	949346	444	0
3	949346	445	0
3	949346	446	0
3	949346	447	0
3	949346	448	0
3	949346	449	0
3	949346	450	0
3	949346	451	0
3	949346	452	0
3	949346	453	0
3	949346	454	0
3	949346	455	0
3	949346	456	0
3	949346	457	0
3	949346	458	0
3	949346	459	0
3	949346	460	0
3	949346	461	0
3	949346	462	0
3	949346	463	0
3	949346	464	0
3	949346	465	0
3	949346	466	0
3	949346	467	0
3	949346	468	0
3	949346	469	0
3	949346	470	0
3	949346	471	0
3	949346	472	0
3	949346	473	0
3	949346	474	0
3	949346	475	0
3	949346	476	0
3	949346	477	0
3	949346	478	0
3	949346	479	0
3	949346	480	0
3	949346	481	0
3	949346	482	0
3	949346	483	0
3	949346	484	0
3	949346	485	0
3	949346	486	0
3	949346	487	0
3	949346	488	0
3	949346	489	0
3	949346	490	0
3	949346	491	0
3	949346	492	0
3	949346	493	0
3	949346	494	0
3	949346	495	0
3	949346	496	0
3	949346	497	0
3	949346	498	0
3	949346	499	0
3	949346	500	0
3	949346	501	0
3	949346	502	0
3	949346	503	0
3	949346	504	0
3	949346	505	0
3	949346	506	0
3	949346	507	0
3	949346	508	0
3	949346	509	0
3	949346	510	0
3	949346	511	0
3	949346	512	0
3	949346	513	0
3	949346	514	0
3	949346	515	0
3	949346	516	0
3	949346	517	0
3	949346	518	0
3	949346	519	0
3	949346	520	0
3	949346	521	0
3	949346	522	0
3	949346	523	0
3	949346	524	0
3	949346	525	0
3	949346	526	0
3	949346	527	0
3	949346	528	0
3	949346	529	0
3	949346	530	0
3	949346	531	0
3	949346	532	0
3	949346	533	0
3	949346	534	0
3	949346	535	0
3	949346	536	0
3	949346	537	0
3	949346	538	0
3	949346	539	0
3	949346	540	0
3	949346	541	0
3	949346	542	0
3	949346	543	0
3	949346	544	0
3	949346	545	0
3	949346	546	0
3	949346	547	0
3	949346	548	0
3	949346	549	0
3	949346	550	0
3	949346	551	0
3	949346	552	0
3	949346	553	0
3	949346	554	0
3	949346	555	0
3	949346	556	0
3	949346	557	0
3	949346	558	0
3	949346	559	0
3	949346	560	0
3	949346	561	0
3	949346	562	0
3	949346	563	0
3	949346	564	0
3	949346	565	0
3	949346	566	0
3	949346	567	0
3	949346	568	0
3	949346	569	0
3	949346	570	0
3	949346	571	0
3	949346	572	0
3	949346	573	0
3	949346	574	0
3	949346	575	0
3	949346	576	0
3	949346	577	0
3	949346	578	0
3	949346	579	0
3	949346	580	0
3	949346	581	0
3	949346	582	0
3	949346	583	0
3	949346	584	0
3	949346	585	0
3	949346	586	0
3	949346	587	0
3	949346	588	0
3	949346	589	0
3	949346	590	0
3	949346	591	0
3	949346	592	0
3	949346	593	0
3	949346	594	0
3	949346	595	0
3	949346	596	0
3	949346	597	0
3	949346	598	0
3	949346	599	0
3	949346	600	0
3	949346	601	0
3	949346	602	0
3	949346	603	0
3	949346	604	0
3	949346	605	0
3	949346	606	0
3	949346	607	0
3	949346	608	0
3	949346	609	0
3	949346	610	0
3	949346	611	0
3	949346	612	0
3	949346	613	0
3	949346	614	0
3	949346	615	0
3	949346	616	0
3	949346	617	0
3	949346	618	0
3	949346	619	0
3	949346	620	0
3	949346	621	0
3	949346	622	0
3	949346	623	0
3	949346	624	0
3	949346	625	0
3	949346	626	0
3	949346	627	0
3	949346	628	0
3	949346	629	0
3	949346	630	0
3	949346	631	0
3	949346	632	0
3	949346	633	0
3	949346	634	0
3	949346	635	0
3	949346	636	0
3	949346	637	0
3	949346	638	0
3	949346	639	0
3	949346	640	0
3	949346	641	0
3	949346	642	0
3	949346	643	0
3	949346	644	0
3	949346	645	0
3	949346	646	0
3	949346	647	0
3	949346	648	0
3	949346	649	0
3	949346	650	0
3	949346	651	0
3	949346	652	0
3	949346	653	0
3	949346	654	0
3	949346	655	0
3	949346	656	0
3	949346	657	0
3	949346	658	0
3	949346	659	0
3	949346	660	0
3	949346	661	0
3	949346	662	0
3	949346	663	0
3	949346	664	0
3	949346	665	0
3	949346	666	0
3	949346	667	0
3	949346	668	0
3	949346	669	0
3	949346	670	0
3	949346	671	0
3	949346	672	0
3	949346	673	0
3	949346	674	0
3	949346	675	0
3	949346	676	0
3	949346	677	0
3	949346	678	0
3	949346	679	0
3	949346	680	0
3	949346	681	0
3	949346	682	0
3	949346	683	0
3	949346	684	0
3	949346	685	0
3	949346	686	0
3	949346	687	0
3	949346	688	0
3	949346	689	0
3	949346	690	0
3	949346	691	0
3	949346	692	0
3	949346	693	0
3	949346	694	0
3	949346	695	0
3	949346	696	0
3	949346	697	0
3	949346	698	0
3	949346	699	0
3	949346	700	0
3	949346	701	0
3	949346	702	0
3	949346	703	0
3	949346	704	0
3	949346	705	0
3	949346	706	0
3	949346	707	0
3	949346	708	0
3	949346	709	0
3	949346	710	0
3	949346	711	0
3	949346	712	0
3	949346	713	0
3	949346	714	0
3	949346	715	0
3	949346	716	0
3	949346	717	0
3	949346	718	0
3	949346	719	0
3	949346	720	0
3	949346	721	0
3	949346	722	0
3	949346	723	0
3	949346	724	0
3	949346	725	0
3	949346	726	0
3	949346	727	0
3	949346	728	0
3	949346	729	0
3	949346	730	0
3	949346	731	0
3	949346	732	0
3	949346	733	0
3	949346	734	0
3	949346	735	0
3	949346	736	0
3	949346	737	0
3	949346	738	0
3	949346	739	0
3	949346	740	0
3	949346	741	0
3	949346	742	0
3	949346	743	0
3	949346	744	0
3	949346	745	0
3	949346	746	0
3	949346	747	0
3	949346	748	0
3	949346	749	0
3	949346	750	0
3	949346	751	0
3	949346	752	0
3	949346	753	0
3	949346	754	0
3	949346	755	0
3	949346	756	0
3	949346	757	0
3	949346	758	0
3	949346	759	0
3	949346	760	0
3	949346	761	0
3	949346	762	0
3	949346	763	0
3	949346	764	0
3	949346	765	0
3	949346	766	0
3	949346	767	0
3	949346	768	0
3	949346	769	0
3	949346	770	0
3	949346	771	0
3	949346	772	0
3	949346	773	0
3	949346	774	0
3	949346	775	0
3	949346	776	0
3	949346	777	0
3	949346	778	0
3	949346	779	0
3	949346	780	0
3	949346	781	0
3	949346	782	0
3	949346	783	0
3	949346	784	0
3	949346	785	0
3	949346	786	0
3	949346	787	0
3	949346	788	0
3	949346	789	0
3	949346	790	0
3	949346	791	0
3	949346	792	0
3	949346	793	0
3	949346	794	0
3	949346	795	0
3	949346	796	0
3	949346	797	0
3	949346	798	0
3	949346	799	0
3	949346	800	0
3	949346	801	0
3	949346	802	0
3	949346	803	0
3	949346	804	0
3	949346	805	0
3	949346	806	0
3	949346	807	0
3	949346	808	0
3	949346	809	0
3	949346	810	0
3	949346	811	0
3	949346	812	0
3	949346	813	0
3	949346	814	0
3	949346	815	0
3	949346	816	0
3	949346	817	0
3	949346	818	0
3	949346	819	0
3	949346	820	0
3	949346	821	0
3	949346	822	0
3	949346	823	0
3	949346	824	0
3	949346	825	0
3	949346	826	0
3	949346	827	0
3	949346	828	0
3	949346	829	0
3	949346	830	0
3	949346	831	0
3	949346	832	0
3	949346	833	0
3	949346	834	0
3	949346	835	0
3	949346	836	0
3	949346	837	0
3	949346	838	0
3	949346	839	0
3	949346	840	0
3	949346	841	0
3	949346	842	0
3	949346	843	0
3	949346	844	0
3	949346	845	0
3	949346	846	0
3	949346	847	0
3	949346	848	0
3	949346	849	0
3	949346	850	0
3	949346	851	0
3	949346	852	0
3	949346	853	0
3	949346	854	0
3	949346	855	0
3	949346	856	0
3	949346	857	0
3	949346	858	0
3	949346	859	0
3	949346	860	0
3	949346	861	0
3	949346	862	0
3	949346	863	0
3	949346	864	0
3	949346	865	0
3	949346	866	0
3	949346	867	0
3	949346	868	0
3	949346	869	0
3	949346	870	0
3	949346	871	0
3	949346	872	0
3	949346	873	0
3	949346	874	0
3	949346	875	0
3	949346	876	0
3	949346	877	0
3	949346	878	0
3	949346	879	0
3	949346	880	0
3	949346	881	0
3	949346	882	0
3	949346	883	0
3	949346	884	0
3	949346	885	0
3	949346	886	0
3	949346	887	0
3	949346	888	0
3	949346	889	0
3	949346	890	0
3	949346	891	0
3	949346	892	0
3	949346	893	0
3	949346	894	0
3	949346	895	0
3	949346	896	0
3	949346	897	0
3	949346	898	0
3	949346	899	0
3	949346	900	0
3	949346	901	0
3	949346	902	0
3	949346	903	0
3	949346	904	0
3	949346	905	0
3	949346	906	0
3	949346	907	0
3	949346	908	0
3	949346	909	0
3	949346	910	0
3	949346	911	0
3	949346	912	0
3	949346	913	0
3	949346	914	0
3	949346	915	0
3	949346	916	0
3	949346	917	0
3	949346	918	0
3	949346	919	0
3	949346	920	0
3	949346	921	0
3	949346	922	0
3	949346	923	0
3	949346	924	0
3	949346	925	0
3	949346	926	0
3	949346	927	0
3	949346	928	0
3	949346	929	0
3	949346	930	0
3	949346	931	0
3	949346	932	0
3	949346	933	0
3	949346	934	0
3	949346	935	0
3	949346	936	0
3	949346	937	0
3	949346	938	0
3	949346	939	0
3	949346	940	0
3	949346	941	0
3	949346	942	0
3	949346	943	0
3	949346	944	0
3	949346	945	0
3	949346	946	0
3	949346	947	0
3	949346	948	0
3	949346	949	0
3	949346	950	0
3	949346	951	0
3	949346	952	0
3	949346	953	0
3	949346	954	0
3	949346	955	0
3	949346	956	0
3	949346	957	0
3	949346	958	0
3	949346	959	0
3	949346	960	0
3	949346	961	0
3	949346	962	0
3	949346	963	0
3	949346	964	0
3	949346	965	0
3	949346	966	0
3	949346	967	0
3	949346	968	0
3	949346	969	0
3	949346	970	0
3	949346	971	0
3	949346	972	0
3	949346	973	0
3	949346	974	0
3	949346	975	0
3	949346	976	0
3	949346	977	0
3	949346	978	0
3	949346	979	0
3	949346	980	0
3	949346	981	0
3	949346	982	0
3	949346	983	0
3	949346	984	0
3	949346	985	0
3	949346	986	0
3	949346	987	0
3	949346	988	0
3	949346	989	0
3	949346	990	0
3	949346	991	0
3	949346	992	0
3	949346	993	0
3	949346	994	0
3	949346	995	0
3	949346	996	0
3	949346	997	0
3	949346	998	0
3	949346	999	0
3	949346	1000	0
3	949346	1001	0
3	949346	1002	0
3	949346	1003	0
3	949346	1004	0
3	949346	1005	0
3	949346	1006	0
3	949346	1007	0
3	949346	1008	0
3	949346	1009	0
3	949346	1010	0
3	949346	1011	0
3	949346	1012	0
3	949346	1013	0
3	949346	1014	0
3	949346	1015	0
3	949346	1016	0
3	949346	1017	0
3	949346	1018	0
3	949346	1019	0
3	949346	1020	0
3	949346	1021	0
3	949346	1022	0
3	949346	1023	0
3	949346	1024	0
3	949346	1025	0
3	949346	1026	0
3	949346	1027	0
3	949346	1028	0
3	949346	1029	0
3	949346	1030	0
3	949346	1031	0
3	949346	1032	0
3	949346	1033	0
3	949346	1034	0
3	949346	1035	0
3	949346	1036	0
3	949346	1037	0
3	949346	1038	0
3	949346	1039	0
3	949346	1040	0
3	949346	1041	0
3	949346	1042	0
3	949346	1043	0
3	949346	1044	0
3	949346	1045	0
3	949346	1046	0
3	949346	1047	0
3	949346	1048	0
3	949346	1049	0
3	949346	1050	0
3	949346	1051	0
3	949346	1052	0
3	949346	1053	0
3	949346	1054	0
3	949346	1055	0
3	949346	1056	0
3	949346	1057	0
3	949346	1058	0
3	949346	1059	0
3	949346	1060	0
3	949346	1061	0
3	949346	1062	0
3	949346	1063	0
3	949346	1064	0
3	949346	1065	0
3	949346	1066	0
3	949346	1067	0
3	949346	1068	0
3	949346	1069	0
3	949346	1070	0
3	949346	1071	0
3	949346	1072	0
3	949346	1073	0
3	949346	1074	0
3	949346	1075	0
3	949346	1076	0
3	949346	1077	0
3	949346	1078	0
3	949346	1079	0
3	949346	1080	0
3	949346	1081	0
3	949346	1082	0
3	949346	1083	0
3	949346	1084	0
3	949346	1085	0
3	949346	1086	0
3	949346	1087	0
3	949346	1088	0
3	949346	1089	0
3	949346	1090	0
3	949346	1091	0
3	949346	1092	0
3	949346	1093	0
3	949346	1094	0
3	949346	1095	0
3	949346	1096	0
3	949346	1097	0
3	949346	1098	0
3	949346	1099	0
3	949346	1100	0
3	949346	1101	0
3	949346	1102	0
3	949346	1103	0
3	949346	1104	0
3	949346	1105	0
3	949346	1106	0
3	949346	1107	0
3	949346	1108	0
3	949346	1109	0
3	949346	1110	0
3	949346	1111	0
3	949346	1112	0
3	949346	1113	0
3	949346	1114	0
3	949346	1115	0
3	949346	1116	0
3	949346	1117	0
3	949346	1118	0
3	949346	1119	0
3	949346	1120	0
3	949346	1121	0
3	949346	1122	0
3	949346	1123	0
3	949346	1124	0
3	949346	1125	0
3	949346	1126	0
3	949346	1127	0
3	949346	1128	0
3	949346	1129	0
3	949346	1130	0
3	949346	1131	0
3	949346	1132	0
3	949346	1133	0
3	949346	1134	0
3	949346	1135	0
3	949346	1136	0
3	949346	1137	0
3	949346	1138	0
3	949346	1139	0
3	949346	1140	0
3	949346	1141	0
3	949346	1142	0
3	949346	1143	0
3	949346	1144	0
3	949346	1145	0
3	949346	1146	0
3	949346	1147	0
3	949346	1148	0
3	949346	1149	0
3	949346	1150	0
3	949346	1151	0
3	949346	1152	0
3	949346	1153	0
3	949346	1154	0
3	949346	1155	0
3	949346	1156	0
3	949346	1157	0
3	949346	1158	0
3	949346	1159	0
3	949346	1160	0
3	949346	1161	0
3	949346	1162	0
3	949346	1163	0
3	949346	1164	0
3	949346	1165	0
3	949346	1166	0
3	949346	1167	0
3	949346	1168	0
3	949346	1169	0
3	949346	1170	0
3	949346	1171	0
3	949346	1172	0
3	949346	1173	0
3	949346	1174	0
3	949346	1175	0
3	949346	1176	0
3	949346	1177	0
3	949346	1178	0
3	949346	1179	0
3	949346	1180	0
3	949346	1181	0
3	949346	1182	0
3	949346	1183	0
3	949346	1184	0
3	949346	1185	0
3	949346	1186	0
3	949346	1187	0
3	949346	1188	0
3	949346	1189	0
3	949346	1190	0
3	949346	1191	0
3	949346	1192	0
3	949346	1193	0
3	949346	1194	0
3	949346	1195	0
3	949346	1196	0
3	949346	1197	0
3	949346	1198	0
3	949346	1199	0
3	949346	1200	0
3	949346	1201	0
3	949346	1202	0
3	949346	1203	0
3	949346	1204	0
3	949346	1205	0
3	949346	1206	0
3	949346	1207	0
3	949346	1208	0
3	949346	1209	0
3	949346	1210	0
3	949346	1211	0
3	949346	1212	0
3	949346	1213	0
3	949346	1214	0
3	949346	1215	0
3	949346	1216	0
3	949346	1217	0
3	949346	1218	0
3	949346	1219	0
3	949346	1220	0
3	949346	1221	0
3	949346	1222	0
3	949346	1223	0
3	949346	1224	0
3	949346	1225	0
3	949346	1226	0
3	949346	1227	0
3	949346	1228	0
3	949346	1229	0
3	949346	1230	0
3	949346	1231	0
3	949346	1232	0
3	949346	1233	0
3	949346	1234	0
3	949346	1235	0
3	949346	1236	0
3	949346	1237	0
3	949346	1238	0
3	949346	1239	0
3	949346	1240	0
3	949346	1241	0
3	949346	1242	0
3	949346	1243	0
3	949346	1244	0
3	949346	1245	0
3	949346	1246	0
3	949346	1247	0
3	949346	1248	0
3	949346	1249	0
3	949346	1250	0
3	949346	1251	0
3	949346	1252	0
3	949346	1253	0
3	949346	1254	0
3	949346	1255	0
3	949346	1256	0
3	949346	1257	0
3	949346	1258	0
3	949346	1259	0
3	949346	1260	0
3	949346	1261	0
3	949346	1262	0
3	949346	1263	0
3	949346	1264	0
3	949346	1265	0
3	949346	1266	0
3	949346	1267	0
3	949346	1268	0
3	949346	1269	0
3	949346	1270	0
3	949346	1271	0
3	949346	1272	0
3	949346	1273	0
3	949346	1274	0
3	949346	1275	0
3	949346	1276	0
3	949346	1277	0
3	949346	1278	0
3	949346	1279	0
3	949346	1280	0
3	949346	1281	0
3	949346	1282	0
3	949346	1283	0
3	949346	1284	0
3	949346	1285	0
3	949346	1286	0
3	949346	1287	0
3	949346	1288	0
3	949346	1289	0
3	949346	1290	0
3	949346	1291	0
3	949346	1292	0
3	949346	1293	0
3	949346	1294	0
3	949346	1295	0
3	949346	1296	0
3	949346	1297	0
3	949346	1298	0
3	949346	1299	0
3	949346	1300	0
3	949346	1301	0
3	949346	1302	0
3	949346	1303	0
3	949346	1304	0
3	949346	1305	0
3	949346	1306	0
3	949346	1307	0
3	949346	1308	0
3	949346	1309	0
3	949346	1310	0
3	949346	1311	0
3	949346	1312	0
3	949346	1313	0
3	949346	1314	0
3	949346	1315	0
3	949346	1316	0
3	949346	1317	0
3	949346	1318	0
3	949346	1319	0
3	949346	1320	0
3	949346	1321	0
3	949346	1322	0
3	949346	1323	0
3	949346	1324	0
3	949346	1325	0
3	949346	1326	0
3	949346	1327	0
3	949346	1328	0
3	949346	1329	0
3	949346	1330	0
3	949346	1331	0
3	949346	1332	0
3	949346	1333	0
3	949346	1334	0
3	949346	1335	0
3	949346	1336	0
3	949346	1337	0
3	949346	1338	0
3	949346	1339	0
3	949346	1340	0
3	949346	1341	0
3	949346	1342	0
3	949346	1343	0
3	949346	1344	0
3	949346	1345	0
3	949346	1346	0
3	949346	1347	0
3	949346	1348	0
3	949346	1349	0
3	949346	1350	0
3	949346	1351	0
3	949346	1352	0
3	949346	1353	0
3	949346	1354	0
3	949346	1355	0
3	949346	1356	0
3	949346	1357	0
3	949346	1358	0
3	949346	1359	0
3	949346	1360	0
3	949346	1361	0
3	949346	1362	0
3	949346	1363	0
3	949346	1364	0
3	949346	1365	0
3	949346	1366	0
3	949346	1367	0
3	949346	1368	0
3	949346	1369	0
3	949346	1370	0
3	949346	1371	0
3	949346	1372	0
3	949346	1373	0
3	949346	1374	0
3	949346	1375	0
3	949346	1376	0
3	949346	1377	0
3	949346	1378	0
3	949346	1379	0
3	949346	1380	0
3	949346	1381	0
3	949346	1382	0
3	949346	1383	0
3	949346	1384	0
3	949346	1385	0
3	949346	1386	0
3	949346	1387	0
3	949346	1388	0
3	949346	1389	0
3	949346	1390	0
3	949346	1391	0
3	949346	1392	0
3	949346	1393	0
3	949346	1394	0
3	949346	1395	0
3	949346	1396	0
3	949346	1397	0
3	949346	1398	0
3	949346	1399	0
3	949346	1400	0
3	949346	1401	0
3	949346	1402	0
3	949346	1403	0
3	949346	1404	0
3	949346	1405	0
3	949346	1406	0
3	949346	1407	0
3	949346	1408	0
3	949346	1409	0
3	949346	1410	0
3	949346	1411	0
3	949346	1412	0
3	949346	1413	0
3	949346	1414	0
3	949346	1415	0
3	949346	1416	0
3	949346	1417	0
3	949346	1418	0
3	949346	1419	0
3	949346	1420	0
3	949346	1421	0
3	949346	1422	0
3	949346	1423	0
3	949346	1424	0
3	949346	1425	0
3	949346	1426	0
3	949346	1427	0
3	949346	1428	0
3	949346	1429	0
3	949346	1430	0
3	949346	1431	0
3	949346	1432	0
3	949346	1433	0
3	949346	1434	0
3	949346	1435	0
3	949346	1436	0
3	949346	1437	0
3	949346	1438	0
3	949346	1439	0
3	949346	1440	0
3	949346	1441	0
3	949346	1442	0
3	949346	1443	0
3	949346	1444	0
3	949346	1445	0
3	949346	1446	0
3	949346	1447	0
3	949346	1448	0
3	949346	1449	0
3	949346	1450	0
3	949346	1451	0
3	949346	1452	0
3	949346	1453	0
3	949346	1454	0
3	949346	1455	0
3	949346	1456	0
3	949346	1457	0
3	949346	1458	0
3	949346	1459	0
3	949346	1460	0
3	949346	1461	0
3	949346	1462	0
3	949346	1463	0
3	949346	1464	0
3	949346	1465	0
3	949346	1466	0
3	949346	1467	0
3	949346	1468	0
3	949346	1469	0
3	949346	1470	0
3	949346	1471	0
3	949346	1472	0
3	949346	1473	0
3	949346	1474	0
3	949346	1475	0
3	949346	1476	0
3	949346	1477	0
3	949346	1478	0
3	949346	1479	0
3	949346	1480	0
3	949346	1481	0
3	949346	1482	0
3	949346	1483	0
3	949346	1484	0
3	949346	1485	0
3	949346	1486	0
3	949346	1487	0
3	949346	1488	0
3	949346	1489	0
3	949346	1490	0
3	949346	1491	0
3	949346	1492	0
3	949346	1493	0
3	949346	1494	0
3	949346	1495	0
3	949346	1496	0
3	949346	1497	0
3	949346	1498	0
3	949346	1499	0
3	949346	1500	0
3	949346	1501	0
3	949346	1502	0
3	949346	1503	0
3	949346	1504	0
3	949346	1505	0
3	949346	1506	0
3	949346	1507	0
3	949346	1508	0
3	949346	1509	0
3	949346	1510	0
3	949346	1511	0
3	949346	1512	0
3	949346	1513	0
3	949346	1514	0
3	949346	1515	0
3	949346	1516	0
3	949346	1517	0
3	949346	1518	0
3	949346	1519	0
3	949346	1520	0
3	949346	1521	0
3	949346	1522	0
3	949346	1523	0
3	949346	1524	0
3	949346	1525	0
3	949346	1526	0
3	949346	1527	0
3	949346	1528	0
3	949346	1529	0
3	949346	1530	0
3	949346	1531	0
3	949346	1532	0
3	949346	1533	0
3	949346	1534	0
3	949346	1535	0
3	949346	1536	0
3	949346	1537	0
3	949346	1538	0
3	949346	1539	0
3	949346	1540	0
3	949346	1541	0
3	949346	1542	0
3	949346	1543	0
3	949346	1544	0
3	949346	1545	0
3	949346	1546	0
3	949346	1547	0
3	949346	1548	0
3	949346	1549	0
3	949346	1550	0
3	949346	1551	0
3	949346	1552	0
3	949346	1553	0
3	949346	1554	0
3	949346	1555	0
3	949346	1556	0
3	949346	1557	0
3	949346	1558	0
3	949346	1559	0
3	949346	1560	0
3	949346	1561	0
3	949346	1562	0
3	949346	1563	0
3	949346	1564	0
3	949346	1565	0
3	949346	1566	0
3	949346	1567	0
3	949346	1568	0
3	949346	1569	0
3	949346	1570	0
3	949346	1571	0
3	949346	1572	0
3	949346	1573	0
3	949346	1574	0
3	949346	1575	0
3	949346	1576	0
3	949346	1577	0
3	949346	1578	0
3	949346	1579	0
3	949346	1580	0
3	949346	1581	0
3	949346	1582	0
3	949346	1583	0
3	949346	1584	0
3	949346	1585	0
3	949346	1586	0
3	949346	1587	0
3	949346	1588	0
3	949346	1589	0
3	949346	1590	0
3	949346	1591	0
3	949346	1592	0
3	949346	1593	0
3	949346	1594	0
3	949346	1595	0
3	949346	1596	0
3	949346	1597	0
3	949346	1598	0
3	949346	1599	0
3	949346	1600	0
3	949346	1601	0
3	949346	1602	0
3	949346	1603	0
3	949346	1604	0
3	949346	1605	0
3	949346	1606	0
3	949346	1607	0
3	949346	1608	0
3	949346	1609	0
3	949346	1610	0
3	949346	1611	0
3	949346	1612	0
3	949346	1613	0
3	949346	1614	0
3	949346	1615	0
3	949346	1616	0
3	949346	1617	0
3	949346	1618	0
3	949346	1619	0
3	949346	1620	0
3	949346	1621	0
3	949346	1622	0
3	949346	1623	0
3	949346	1624	0
3	949346	1625	0
3	949346	1626	0
3	949346	1627	0
3	949346	1628	0
3	949346	1629	0
3	949346	1630	0
3	949346	1631	0
3	949346	1632	0
3	949346	1633	0
3	949346	1634	0
3	949346	1635	0
3	949346	1636	0
3	949346	1637	0
3	949346	1638	0
3	949346	1639	0
3	949346	1640	0
3	949346	1641	0
3	949346	1642	0
3	949346	1643	0
3	949346	1644	0
3	949346	1645	0
3	949346	1646	0
3	949346	1647	0
3	949346	1648	0
3	949346	1649	0
3	949346	1650	0
3	949346	1651	0
3	949346	1652	0
3	949346	1653	0
3	949346	1654	0
3	949346	1655	0
3	949346	1656	0
3	949346	1657	0
3	949346	1658	0
3	949346	1659	0
3	949346	1660	0
3	949346	1661	0
3	949346	1662	0
3	949346	1663	0
3	949346	1664	0
3	949346	1665	0
3	949346	1666	0
3	949346	1667	0
3	949346	1668	0
3	949346	1669	0
3	949346	1670	0
3	949346	1671	0
3	949346	1672	0
3	949346	1673	0
3	949346	1674	0
3	949346	1675	0
3	949346	1676	0
3	949346	1677	0
3	949346	1678	0
3	949346	1679	0
3	949346	1680	0
3	949346	1681	0
3	949346	1682	0
3	949346	1683	0
3	949346	1684	0
3	949346	1685	0
3	949346	1686	0
3	949346	1687	0
3	949346	1688	0
3	949346	1689	0
3	949346	1690	0
3	949346	1691	0
3	949346	1692	0
3	949346	1693	0
3	949346	1694	0
3	949346	1695	0
3	949346	1696	0
3	949346	1697	0
3	949346	1698	0
3	949346	1699	0
3	949346	1700	0
3	949346	1701	0
3	949346	1702	0
3	949346	1703	0
3	949346	1704	0
3	949346	1705	0
3	949346	1706	0
3	949346	1707	0
3	949346	1708	0
3	949346	1709	0
3	949346	1710	0
3	949346	1711	0
3	949346	1712	0
3	949346	1713	0
3	949346	1714	0
3	949346	1715	0
3	949346	1716	0
3	949346	1717	0
3	949346	1718	0
3	949346	1719	0
3	949346	1720	0
3	949346	1721	0
3	949346	1722	0
3	949346	1723	0
3	949346	1724	0
3	949346	1725	0
3	949346	1726	0
3	949346	1727	0
3	949346	1728	0
3	949346	1729	0
3	949346	1730	0
3	949346	1731	0
3	949346	1732	0
3	949346	1733	0
3	949346	1734	0
3	949346	1735	0
3	949346	1736	0
3	949346	1737	0
3	949346	1738	0
3	949346	1739	0
3	949346	1740	0
3	949346	1741	0
3	949346	1742	0
3	949346	1743	0
3	949346	1744	0
3	949346	1745	0
3	949346	1746	0
3	949346	1747	0
3	949346	1748	0
3	949346	1749	0
3	949346	1750	0
3	949346	1751	0
3	949346	1752	0
3	949346	1753	0
3	949346	1754	0
3	949346	1755	0
3	949346	1756	0
3	949346	1757	0
3	949346	1758	0
3	949346	1759	0
3	949346	1760	0
3	949346	1761	0
3	949346	1762	0
3	949346	1763	0
3	949346	1764	0
3	949346	1765	0
3	949346	1766	0
3	949346	1767	0
3	949346	1768	0
3	949346	1769	0
3	949346	1770	0
3	949346	1771	0
3	949346	1772	0
3	949346	1773	0
3	949346	1774	0
3	949346	1775	0
3	949346	1776	0
3	949346	1777	0
3	949346	1778	0
3	949346	1779	0
3	949346	1780	0
3	949346	1781	0
3	949346	1782	0
3	949346	1783	0
3	949346	1784	0
3	949346	1785	0
3	949346	1786	0
3	949346	1787	0
3	949346	1788	0
3	949346	1789	0
3	949346	1790	0
3	949346	1791	0
3	949346	1792	0
3	949346	1793	0
3	949346	1794	0
3	949346	1795	0
3	949346	1796	0
3	949346	1797	0
3	949346	1798	0
3	949346	1799	0
3	949346	1800	0
3	949346	1801	0
3	949346	1802	0
3	949346	1803	0
3	949346	1804	0
3	949346	1805	0
3	949346	1806	0
3	949346	1807	0
3	949346	1808	0
3	949346	1809	0
3	949346	1810	0
3	949346	1811	0
3	949346	1812	0
3	949346	1813	0
3	949346	1814	0
3	949346	1815	0
3	949346	1816	0
3	949346	1817	0
3	949346	1818	0
3	949346	1819	0
3	949346	1820	0
3	949346	1821	0
3	949346	1822	0
3	949346	1823	0
3	949346	1824	0
3	949346	1825	0
3	949346	1826	0
3	949346	1827	0
3	949346	1828	0
3	949346	1829	0
3	949346	1830	0
3	949346	1831	0
3	949346	1832	0
3	949346	1833	0
3	949346	1834	0
3	949346	1835	0
3	949346	1836	0
3	949346	1837	0
3	949346	1838	0
3	949346	1839	0
3	949346	1840	0
3	949346	1841	0
3	949346	1842	0
3	949346	1843	0
3	949346	1844	0
3	949346	1845	0
3	949346	1846	0
3	949346	1847	0
3	949346	1848	0
3	949346	1849	0
3	949346	1850	0
3	949346	1851	0
3	949346	1852	0
3	949346	1853	0
3	949346	1854	0
3	949346	1855	0
3	949346	1856	0
3	949346	1857	0
3	949346	1858	0
3	949346	1859	0
3	949346	1860	0
3	949346	1861	0
3	949346	1862	0
3	949346	1863	0
3	949346	1864	0
3	949346	1865	0
3	949346	1866	0
3	949346	1867	0
3	949346	1868	0
3	949346	1869	0
3	949346	1870	0
3	949346	1871	0
3	949346	1872	0
3	949346	1873	0
3	949346	1874	0
3	949346	1875	0
3	949346	1876	0
3	949346	1877	0
3	949346	1878	0
3	949346	1879	0
3	949346	1880	0
3	949346	1881	0
3	949346	1882	0
3	949346	1883	0
3	949346	1884	0
3	949346	1885	0
3	949346	1886	0
3	949346	1887	0
3	949346	1888	0
3	949346	1889	0
3	949346	1890	0
3	949346	1891	0
3	949346	1892	0