version 2
run General-2-20150520-10:59:48-7268
attr D fix0.1
attr F nrr
attr R lru
attr a 1
attr configname General
attr datetime 20150520-10:59:48
attr experiment General
attr inifile omnetpp.ini
attr iterationvars "$net=abilene, $rep=0, $a=1, $F=nrr, $ttl=1000, $D=fix0.1, $R=lru"
attr iterationvars2 "$net=abilene, $rep=0, $a=1, $F=nrr, $ttl=1000, $D=fix0.1, $R=lru, $repetition=0"
attr measurement "$net=abilene, $rep=0, $a=1, $F=nrr, $ttl=1000, $D=fix0.1, $R=lru"
attr net abilene
attr network networks.${net=abilene}_network
attr processid 7268
attr rep 0
attr repetition 0
attr replication #0
attr resultdir results
attr runnumber 2
attr seedset 0
attr ttl 1000

vector 44  abilene_network.node[0].content_store  hit_node[0]  ETV
44	397543	1	1
44	397543	2	1
44	397543	3	1
44	397543	4	1
44	397543	5	0.95652173913043
44	397543	6	1
44	397543	7	1
44	397543	8	1
44	397543	9	1
44	397543	10	1
44	397543	11	0.5
44	397543	12	1
44	397543	13	0.8
44	397543	14	1
44	397543	15	0
44	397543	16	0
44	397543	17	0
44	397543	18	1
44	397543	19	0.81818181818182
44	397543	20	0.83333333333333
44	397543	21	0
44	397543	22	0.6
44	397543	23	0.66666666666667
44	397543	24	0
44	397543	25	0
44	397543	26	0
44	397543	27	0.4
44	397543	28	1
44	397543	29	0
44	397543	30	0
44	397543	31	0
44	397543	32	1
44	397543	33	0
44	397543	34	0
44	397543	35	0
44	397543	36	0.5
44	397543	37	0
44	397543	38	1
44	397543	39	0
44	397543	40	0
44	397543	41	0
44	397543	42	1
44	397543	43	0.83333333333333
44	397543	44	1
44	397543	45	0
44	397543	46	0
44	397543	47	0.5
44	397543	48	0
44	397543	49	0
44	397543	50	1
44	397543	51	0
44	397543	52	0
44	397543	53	0
44	397543	54	0.42857142857143
44	397543	55	1
44	397543	56	1
44	397543	57	0.33333333333333
44	397543	58	0
44	397543	59	0
44	397543	60	0
44	397543	61	0
44	397543	62	0
44	397543	63	0.75
44	397543	64	0
44	397543	65	0
44	397543	66	0
44	397543	67	0
44	397543	68	0.5
44	397543	69	0.9
44	397543	70	0
44	397543	71	0
44	397543	72	-nan
44	397543	73	0
44	397543	74	0
44	397543	75	0
44	397543	76	0
vector 45  abilene_network.node[1].content_store  hit_node[1]  ETV
45	397543	1	1
45	397543	2	1
45	397543	3	1
45	397543	4	0.83783783783784
45	397543	5	1
45	397543	6	1
45	397543	7	1
45	397543	8	0.23076923076923
45	397543	9	0.375
45	397543	10	0
45	397543	11	1
45	397543	12	1
45	397543	13	0.083333333333333
45	397543	14	1
45	397543	15	1
45	397543	16	0.77777777777778
45	397543	17	0.28571428571429
45	397543	18	1
45	397543	19	0
45	397543	20	0
45	397543	21	0.4
45	397543	22	0
45	397543	23	0.875
45	397543	24	1
45	397543	25	1
45	397543	26	1
45	397543	27	0.90909090909091
45	397543	28	0
45	397543	29	0.4
45	397543	30	0
45	397543	31	0
45	397543	32	0.14285714285714
45	397543	33	0
45	397543	34	1
45	397543	35	-nan
45	397543	36	0.5
45	397543	37	0.625
45	397543	38	0
45	397543	39	0
45	397543	40	1
45	397543	41	1
45	397543	42	0
45	397543	43	0.83333333333333
45	397543	44	0
45	397543	45	0.53846153846154
45	397543	46	0
45	397543	47	0.90909090909091
45	397543	48	0.66666666666667
45	397543	49	0.2
45	397543	50	0
45	397543	51	0
45	397543	52	0
45	397543	53	0
45	397543	54	0.625
45	397543	55	0
45	397543	56	0
45	397543	57	0.77777777777778
45	397543	58	1
45	397543	59	0.54545454545455
45	397543	60	0
45	397543	61	0.25
45	397543	62	0
45	397543	63	0
45	397543	64	0.375
45	397543	65	0.75
45	397543	66	0.8
45	397543	67	1
45	397543	68	0
45	397543	69	0
45	397543	70	0
45	397543	71	0.6
45	397543	72	0
45	397543	73	0
45	397543	74	0.92307692307692
45	397543	75	0
45	397543	76	0.33333333333333
vector 46  abilene_network.node[2].content_store  hit_node[2]  ETV
46	397543	1	1
46	397543	2	1
46	397543	3	1
46	397543	4	1
46	397543	5	0.91666666666667
46	397543	6	1
46	397543	7	0.55
46	397543	8	1
46	397543	9	1
46	397543	10	0.94736842105263
46	397543	11	0.63636363636364
46	397543	12	1
46	397543	13	0.5
46	397543	14	0
46	397543	15	0
46	397543	16	0.61538461538462
46	397543	17	1
46	397543	18	1
46	397543	19	0
46	397543	20	0.69230769230769
46	397543	21	0.73333333333333
46	397543	22	1
46	397543	23	1
46	397543	24	0
46	397543	25	0.18181818181818
46	397543	26	0.2
46	397543	27	0.16666666666667
46	397543	28	0
46	397543	29	0.77272727272727
46	397543	30	0.42857142857143
46	397543	31	0
46	397543	32	0
46	397543	33	0.5
46	397543	34	0
46	397543	35	0.5
46	397543	36	0
46	397543	37	0.64285714285714
46	397543	38	0
46	397543	39	0
46	397543	40	0
46	397543	41	0
46	397543	42	0
46	397543	43	0.42857142857143
46	397543	44	0
46	397543	45	0
46	397543	46	0
46	397543	47	0
46	397543	48	0
46	397543	49	0.9
46	397543	50	0.8
46	397543	51	0.33333333333333
46	397543	52	0
46	397543	53	0.25
46	397543	54	0
46	397543	55	0
46	397543	56	0.6
46	397543	57	0.5
46	397543	58	0
46	397543	59	0.33333333333333
46	397543	60	0
46	397543	61	0
46	397543	62	0.66666666666667
46	397543	63	0.875
46	397543	64	0.47826086956522
46	397543	65	0
46	397543	66	0.54545454545455
46	397543	67	0
46	397543	68	0.5
46	397543	69	0.76923076923077
46	397543	70	0
46	397543	71	0
46	397543	72	0
46	397543	73	0
46	397543	74	0
46	397543	75	0
46	397543	76	0.54545454545455
vector 47  abilene_network.node[3].content_store  hit_node[3]  ETV
47	397543	1	1
47	397543	2	1
47	397543	3	1
47	397543	4	1
47	397543	5	1
47	397543	6	1
47	397543	7	0.70588235294118
47	397543	8	0.31578947368421
47	397543	9	1
47	397543	10	0.86363636363636
47	397543	11	0.41666666666667
47	397543	12	0
47	397543	13	0.9
47	397543	14	0.9375
47	397543	15	0.81818181818182
47	397543	16	0.64705882352941
47	397543	17	0.4
47	397543	18	0
47	397543	19	0.625
47	397543	20	0
47	397543	21	0.5
47	397543	22	0
47	397543	23	0
47	397543	24	0
47	397543	25	0
47	397543	26	0.1
47	397543	27	0.90909090909091
47	397543	28	0
47	397543	29	0
47	397543	30	0
47	397543	31	0.85714285714286
47	397543	32	0.625
47	397543	33	0
47	397543	34	0
47	397543	35	0.5
47	397543	36	0
47	397543	37	0
47	397543	38	0.7
47	397543	39	0
47	397543	40	0.71428571428571
47	397543	41	0.22222222222222
47	397543	42	1
47	397543	43	0
47	397543	44	0
47	397543	45	0
47	397543	46	0
47	397543	47	0.5
47	397543	48	0
47	397543	49	0
47	397543	50	0
47	397543	51	0.66666666666667
47	397543	52	0
47	397543	53	0
47	397543	54	0.57142857142857
47	397543	55	0
47	397543	56	-nan
47	397543	57	0.75
47	397543	58	0
47	397543	59	0.88888888888889
47	397543	60	0
47	397543	61	0
47	397543	62	0.58333333333333
47	397543	63	0.66666666666667
47	397543	64	0
47	397543	65	0.16666666666667
47	397543	66	0.18181818181818
47	397543	67	0
47	397543	68	0
47	397543	69	0
47	397543	70	0
47	397543	71	0
47	397543	72	0
47	397543	73	0.33333333333333
47	397543	74	0.6
47	397543	75	0.6
47	397543	76	0
vector 48  abilene_network.node[4].content_store  hit_node[4]  ETV
48	397543	1	1
48	397543	2	1
48	397543	3	1
48	397543	4	1
48	397543	5	1
48	397543	6	1
48	397543	7	1
48	397543	8	1
48	397543	9	1
48	397543	10	0
48	397543	11	0
48	397543	12	0.28571428571429
48	397543	13	0.18181818181818
48	397543	14	1
48	397543	15	0.42857142857143
48	397543	16	1
48	397543	17	0.78571428571429
48	397543	18	0
48	397543	19	1
48	397543	20	0.77777777777778
48	397543	21	0.625
48	397543	22	0.78571428571429
48	397543	23	0
48	397543	24	0
48	397543	25	0
48	397543	26	1
48	397543	27	1
48	397543	28	0
48	397543	29	0.5
48	397543	30	0
48	397543	31	0.5
48	397543	32	0
48	397543	33	0
48	397543	34	0.6
48	397543	35	0
48	397543	36	0.875
48	397543	37	1
48	397543	38	0.4
48	397543	39	-nan
48	397543	40	0
48	397543	41	1
48	397543	42	0
48	397543	43	0
48	397543	44	0.72727272727273
48	397543	45	0
48	397543	46	0
48	397543	47	1
48	397543	48	0
48	397543	49	0.2
48	397543	50	0
48	397543	51	0
48	397543	52	1
48	397543	53	0.8
48	397543	54	0.33333333333333
48	397543	55	0
48	397543	56	0
48	397543	57	0.57142857142857
48	397543	58	0
48	397543	59	0.2
48	397543	60	1
48	397543	61	1
48	397543	62	0
48	397543	63	0
48	397543	64	0
48	397543	65	0
48	397543	66	0
48	397543	67	0.84615384615385
48	397543	68	0
48	397543	69	0
48	397543	70	-nan
48	397543	71	1
48	397543	72	0
48	397543	73	1
48	397543	74	-nan
48	397543	75	0
48	397543	76	0
vector 49  abilene_network.node[5].content_store  hit_node[5]  ETV
49	397543	1	1
49	397543	2	1
49	397543	3	1
49	397543	4	1
49	397543	5	1
49	397543	6	1
49	397543	7	1
49	397543	8	1
49	397543	9	0.69230769230769
49	397543	10	0
49	397543	11	1
49	397543	12	1
49	397543	13	0.94117647058824
49	397543	14	0.375
49	397543	15	1
49	397543	16	0.6
49	397543	17	0.81818181818182
49	397543	18	0
49	397543	19	0
49	397543	20	0
49	397543	21	0
49	397543	22	1
49	397543	23	0
49	397543	24	1
49	397543	25	0.54545454545455
49	397543	26	0
49	397543	27	0.4
49	397543	28	0
49	397543	29	1
49	397543	30	0.5
49	397543	31	1
49	397543	32	0.66666666666667
49	397543	33	1
49	397543	34	0.42857142857143
49	397543	35	0.84615384615385
49	397543	36	0
49	397543	37	1
49	397543	38	0
49	397543	39	0
49	397543	40	0.4
49	397543	41	1
49	397543	42	0.375
49	397543	43	0.9
49	397543	44	0
49	397543	45	0
49	397543	46	0
49	397543	47	0.8
49	397543	48	0
49	397543	49	0.83333333333333
49	397543	50	0
49	397543	51	0
49	397543	52	0
49	397543	53	0
49	397543	54	0.33333333333333
49	397543	55	-nan
49	397543	56	0
49	397543	57	0
49	397543	58	0
49	397543	59	0
49	397543	60	0
49	397543	61	0
49	397543	62	0.71428571428571
49	397543	63	-nan
49	397543	64	0
49	397543	65	0
49	397543	66	0
49	397543	67	0
49	397543	68	0
49	397543	69	0
49	397543	70	0
49	397543	71	0
49	397543	72	0
49	397543	73	0.4
49	397543	74	0
49	397543	75	1
49	397543	76	0
vector 50  abilene_network.node[6].content_store  hit_node[6]  ETV
50	397543	1	1
50	397543	2	1
50	397543	3	1
50	397543	4	1
50	397543	5	1
50	397543	6	1
50	397543	7	1
50	397543	8	1
50	397543	9	0.94117647058824
50	397543	10	1
50	397543	11	1
50	397543	12	0.38888888888889
50	397543	13	0.58823529411765
50	397543	14	1
50	397543	15	0
50	397543	16	1
50	397543	17	0.9375
50	397543	18	0.96551724137931
50	397543	19	0
50	397543	20	0.8
50	397543	21	0
50	397543	22	0.5
50	397543	23	0
50	397543	24	0.81818181818182
50	397543	25	1
50	397543	26	0.6
50	397543	27	0
50	397543	28	1
50	397543	29	1
50	397543	30	0.38461538461538
50	397543	31	0.86666666666667
50	397543	32	1
50	397543	33	0.28571428571429
50	397543	34	0.85714285714286
50	397543	35	0.55555555555556
50	397543	36	0
50	397543	37	0
50	397543	38	0
50	397543	39	0.875
50	397543	40	-nan
50	397543	41	0
50	397543	42	0
50	397543	43	0.5
50	397543	44	0
50	397543	45	0.5
50	397543	46	1
50	397543	47	0
50	397543	48	0
50	397543	49	0
50	397543	50	0.85714285714286
50	397543	51	0
50	397543	52	0
50	397543	53	1
50	397543	54	0
50	397543	55	0.66666666666667
50	397543	56	0
50	397543	57	0
50	397543	58	1
50	397543	59	0
50	397543	60	0.4
50	397543	61	0
50	397543	62	0
50	397543	63	0
50	397543	64	0
50	397543	65	0
50	397543	66	0
50	397543	67	0
50	397543	68	0.2
50	397543	69	-nan
50	397543	70	0
50	397543	71	0
50	397543	72	0
50	397543	73	0
50	397543	74	0
50	397543	75	0
50	397543	76	0.66666666666667
vector 51  abilene_network.node[7].content_store  hit_node[7]  ETV
51	397543	1	1
51	397543	2	1
51	397543	3	1
51	397543	4	1
51	397543	5	1
51	397543	6	0.96296296296296
51	397543	7	1
51	397543	8	1
51	397543	9	1
51	397543	10	1
51	397543	11	1
51	397543	12	0
51	397543	13	1
51	397543	14	0
51	397543	15	1
51	397543	16	0.090909090909091
51	397543	17	0
51	397543	18	0.63636363636364
51	397543	19	1
51	397543	20	0.83333333333333
51	397543	21	1
51	397543	22	0.8
51	397543	23	1
51	397543	24	0
51	397543	25	0
51	397543	26	0.25
51	397543	27	0
51	397543	28	1
51	397543	29	0
51	397543	30	0
51	397543	31	0.22222222222222
51	397543	32	0
51	397543	33	0
51	397543	34	1
51	397543	35	0
51	397543	36	1
51	397543	37	0
51	397543	38	0
51	397543	39	1
51	397543	40	0.84615384615385
51	397543	41	0
51	397543	42	0
51	397543	43	0
51	397543	44	0.9
51	397543	45	0.71428571428571
51	397543	46	0.375
51	397543	47	0.2
51	397543	48	0.8
51	397543	49	0
51	397543	50	0
51	397543	51	0
51	397543	52	0.58333333333333
51	397543	53	1
51	397543	54	1
51	397543	55	0
51	397543	56	0
51	397543	57	0
51	397543	58	0
51	397543	59	0
51	397543	60	0
51	397543	61	0.66666666666667
51	397543	62	0
51	397543	63	0.85714285714286
51	397543	64	0
51	397543	65	0
51	397543	66	0
51	397543	67	0
51	397543	68	0.9
51	397543	69	-nan
51	397543	70	0
51	397543	71	0
51	397543	72	0
51	397543	73	0
51	397543	74	0.6
51	397543	75	0
51	397543	76	0
vector 52  abilene_network.node[8].content_store  hit_node[8]  ETV
52	397543	1	1
52	397543	2	1
52	397543	3	1
52	397543	4	1
52	397543	5	1
52	397543	6	1
52	397543	7	1
52	397543	8	1
52	397543	9	0.5
52	397543	10	1
52	397543	11	0.83333333333333
52	397543	12	1
52	397543	13	1
52	397543	14	0.66666666666667
52	397543	15	1
52	397543	16	0.5
52	397543	17	0.93333333333333
52	397543	18	0.2
52	397543	19	1
52	397543	20	1
52	397543	21	1
52	397543	22	1
52	397543	23	0.4
52	397543	24	0
52	397543	25	0.16666666666667
52	397543	26	0.57142857142857
52	397543	27	0.58333333333333
52	397543	28	0.71428571428571
52	397543	29	1
52	397543	30	0.95454545454545
52	397543	31	0
52	397543	32	0
52	397543	33	0.71428571428571
52	397543	34	0
52	397543	35	1
52	397543	36	1
52	397543	37	0
52	397543	38	1
52	397543	39	0
52	397543	40	0
52	397543	41	0
52	397543	42	0
52	397543	43	0.625
52	397543	44	0.28571428571429
52	397543	45	0
52	397543	46	0.5
52	397543	47	1
52	397543	48	0.5
52	397543	49	0
52	397543	50	0
52	397543	51	0
52	397543	52	0.88888888888889
52	397543	53	0
52	397543	54	0.875
52	397543	55	0.66666666666667
52	397543	56	0
52	397543	57	0
52	397543	58	0
52	397543	59	0
52	397543	60	0.91666666666667
52	397543	61	0.77777777777778
52	397543	62	0
52	397543	63	0
52	397543	64	0.28571428571429
52	397543	65	0
52	397543	66	0
52	397543	67	-nan
52	397543	68	-nan
52	397543	69	0
52	397543	70	0
52	397543	71	0
52	397543	72	0
52	397543	73	0
52	397543	74	-nan
52	397543	75	0
52	397543	76	0
vector 53  abilene_network.node[9].content_store  hit_node[9]  ETV
53	397543	1	1
53	397543	2	1
53	397543	3	1
53	397543	4	1
53	397543	5	1
53	397543	6	1
53	397543	7	1
53	397543	8	1
53	397543	9	1
53	397543	10	1
53	397543	11	0.9
53	397543	12	1
53	397543	13	1
53	397543	14	0.8125
53	397543	15	0
53	397543	16	0.36363636363636
53	397543	17	0.25
53	397543	18	0.91666666666667
53	397543	19	0.5
53	397543	20	0.83333333333333
53	397543	21	0
53	397543	22	0.875
53	397543	23	0.77777777777778
53	397543	24	1
53	397543	25	0
53	397543	26	0
53	397543	27	0.6
53	397543	28	0.5
53	397543	29	0
53	397543	30	0.4
53	397543	31	1
53	397543	32	0
53	397543	33	0.88888888888889
53	397543	34	0.66666666666667
53	397543	35	0.33333333333333
53	397543	36	0.33333333333333
53	397543	37	0
53	397543	38	-nan
53	397543	39	0
53	397543	40	0.8
53	397543	41	1
53	397543	42	0
53	397543	43	0.5
53	397543	44	0
53	397543	45	0.11111111111111
53	397543	46	0.8
53	397543	47	0
53	397543	48	1
53	397543	49	-nan
53	397543	50	0.71428571428571
53	397543	51	0
53	397543	52	0
53	397543	53	0
53	397543	54	0
53	397543	55	0
53	397543	56	0
53	397543	57	-nan
53	397543	58	0.8
53	397543	59	0
53	397543	60	0
53	397543	61	0
53	397543	62	0.28571428571429
53	397543	63	0.5
53	397543	64	0
53	397543	65	0
53	397543	66	0
53	397543	67	0
53	397543	68	-nan
53	397543	69	0.25
53	397543	70	1
53	397543	71	0.16666666666667
53	397543	72	0
53	397543	73	0.7
53	397543	74	0
53	397543	75	-nan
53	397543	76	0
vector 54  abilene_network.node[10].content_store  hit_node[10]  ETV
54	397543	1	1
54	397543	2	1
54	397543	3	1
54	397543	4	1
54	397543	5	1
54	397543	6	1
54	397543	7	1
54	397543	8	1
54	397543	9	0.95
54	397543	10	0.46666666666667
54	397543	11	1
54	397543	12	0.625
54	397543	13	0.5
54	397543	14	0.57142857142857
54	397543	15	1
54	397543	16	0.66666666666667
54	397543	17	0.28571428571429
54	397543	18	1
54	397543	19	1
54	397543	20	1
54	397543	21	0.25
54	397543	22	0
54	397543	23	0
54	397543	24	0
54	397543	25	0
54	397543	26	0.66666666666667
54	397543	27	1
54	397543	28	1
54	397543	29	-nan
54	397543	30	1
54	397543	31	1
54	397543	32	0
54	397543	33	0.625
54	397543	34	0
54	397543	35	1
54	397543	36	1
54	397543	37	0
54	397543	38	0
54	397543	39	1
54	397543	40	0
54	397543	41	0
54	397543	42	0.57142857142857
54	397543	43	0
54	397543	44	0.33333333333333
54	397543	45	1
54	397543	46	0.66666666666667
54	397543	47	0
54	397543	48	0.4
54	397543	49	1
54	397543	50	0.83333333333333
54	397543	51	0
54	397543	52	0.6
54	397543	53	0.66666666666667
54	397543	54	0
54	397543	55	0.25
54	397543	56	0
54	397543	57	-nan
54	397543	58	0.75
54	397543	59	0.4
54	397543	60	0
54	397543	61	0
54	397543	62	0.4
54	397543	63	0
54	397543	64	0
54	397543	65	0.83333333333333
54	397543	66	0
54	397543	67	0.44444444444444
54	397543	68	1
54	397543	69	0
54	397543	70	0
54	397543	71	1
54	397543	72	0.85714285714286
54	397543	73	0
54	397543	74	0
54	397543	75	0
54	397543	76	0
vector 55  abilene_network.client[0]  hdistance[0]  ETV
55	397543	1	0
55	397543	2	0
55	397543	3	0
55	397543	4	0
55	397543	5	0.043478260869565
55	397543	6	0
55	397543	7	0
55	397543	8	0
55	397543	9	0
55	397543	10	0
55	397543	11	0.5
55	397543	12	0
55	397543	13	0.375
55	397543	14	0
55	397543	15	1
55	397543	16	1
55	397543	17	1
55	397543	18	0
55	397543	19	0.22222222222222
55	397543	20	0.25
55	397543	21	1.4
55	397543	22	2
55	397543	23	0.42857142857143
55	397543	24	1
55	397543	25	1
55	397543	26	1
55	397543	27	0.6
55	397543	28	0
55	397543	29	1.8
55	397543	30	1
55	397543	31	1
55	397543	32	0
55	397543	33	1.6666666666667
55	397543	34	1
55	397543	35	1
55	397543	36	0.66666666666667
55	397543	37	1
55	397543	38	0
55	397543	39	1
55	397543	40	1
55	397543	41	1
55	397543	42	0
55	397543	43	1
55	397543	44	0
55	397543	45	1
55	397543	46	1.125
55	397543	47	1
55	397543	48	1
55	397543	49	1
55	397543	50	0
55	397543	51	2.3333333333333
55	397543	52	3
55	397543	53	1
55	397543	54	1.6
55	397543	55	0
55	397543	56	0
55	397543	57	1
55	397543	58	1
55	397543	59	1.5
55	397543	60	3
55	397543	61	3
55	397543	62	3
55	397543	63	2
55	397543	64	2
55	397543	65	1
55	397543	66	2
55	397543	67	1
55	397543	68	0.66666666666667
55	397543	69	0.66666666666667
55	397543	70	2
55	397543	71	1
55	397543	72	0
55	397543	73	2.5
55	397543	74	1.6666666666667
55	397543	75	4
55	397543	76	2.5
vector 56  abilene_network.client[1]  hdistance[1]  ETV
56	397543	1	0
56	397543	2	0
56	397543	3	0
56	397543	4	0.16216216216216
56	397543	5	0
56	397543	6	0
56	397543	7	0
56	397543	8	0.76923076923077
56	397543	9	0.625
56	397543	10	1
56	397543	11	0
56	397543	12	0
56	397543	13	1.4166666666667
56	397543	14	0
56	397543	15	0
56	397543	16	0.5
56	397543	17	0.7
56	397543	18	0
56	397543	19	1
56	397543	20	1
56	397543	21	0.6
56	397543	22	1
56	397543	23	0.25
56	397543	24	0
56	397543	25	0
56	397543	26	0
56	397543	27	0.2
56	397543	28	1
56	397543	29	0.6
56	397543	30	1
56	397543	31	0
56	397543	32	1
56	397543	33	1
56	397543	34	0
56	397543	35	0
56	397543	36	1
56	397543	37	0.75
56	397543	38	1
56	397543	39	1
56	397543	40	0
56	397543	41	0
56	397543	42	1
56	397543	43	0.2
56	397543	44	1
56	397543	45	1
56	397543	46	1.6666666666667
56	397543	47	0.5
56	397543	48	1
56	397543	49	1
56	397543	50	1
56	397543	51	2
56	397543	52	1.5
56	397543	53	1
56	397543	54	1
56	397543	55	1
56	397543	56	1
56	397543	57	0.57142857142857
56	397543	58	0
56	397543	59	0.5
56	397543	60	2
56	397543	61	1
56	397543	62	1
56	397543	63	1
56	397543	64	0.66666666666667
56	397543	65	0.33333333333333
56	397543	66	0
56	397543	67	0
56	397543	68	1
56	397543	69	1
56	397543	70	1
56	397543	71	0.66666666666667
56	397543	72	1
56	397543	73	2.3333333333333
56	397543	74	0
56	397543	75	2
56	397543	76	0
vector 57  abilene_network.client[2]  hdistance[2]  ETV
57	397543	1	0
57	397543	2	0
57	397543	3	0
57	397543	4	0
57	397543	5	0.083333333333333
57	397543	6	0
57	397543	7	0.45
57	397543	8	0
57	397543	9	0
57	397543	10	0.076923076923077
57	397543	11	0.4
57	397543	12	0
57	397543	13	0.38461538461538
57	397543	14	1
57	397543	15	1
57	397543	16	0.5
57	397543	17	0
57	397543	18	0
57	397543	19	1
57	397543	20	0.5
57	397543	21	0.4
57	397543	22	0
57	397543	23	0
57	397543	24	1
57	397543	25	1
57	397543	26	0.875
57	397543	27	0.88888888888889
57	397543	28	1.25
57	397543	29	0.18181818181818
57	397543	30	0.5
57	397543	31	1.75
57	397543	32	1
57	397543	33	0.4
57	397543	34	1
57	397543	35	0.4
57	397543	36	1
57	397543	37	1
57	397543	38	1
57	397543	39	2
57	397543	40	1
57	397543	41	1
57	397543	42	0
57	397543	43	0.66666666666667
57	397543	44	1
57	397543	45	1.25
57	397543	46	1
57	397543	47	1
57	397543	48	1.6666666666667
57	397543	49	0.4
57	397543	50	0.5
57	397543	51	0
57	397543	52	1
57	397543	53	2
57	397543	54	1.5
57	397543	55	0
57	397543	56	0
57	397543	57	0
57	397543	58	1
57	397543	59	0.5
57	397543	60	2
57	397543	61	0
57	397543	62	1
57	397543	63	0
57	397543	64	1
57	397543	65	1.5
57	397543	66	0
57	397543	67	1
57	397543	68	0.6
57	397543	69	1
57	397543	70	2
57	397543	71	1
57	397543	72	2
57	397543	73	1.5
57	397543	74	1
57	397543	75	2
57	397543	76	0.33333333333333
vector 58  abilene_network.client[3]  hdistance[3]  ETV
58	397543	1	0
58	397543	2	0
58	397543	3	0
58	397543	4	0
58	397543	5	0
58	397543	6	0
58	397543	7	0.3125
58	397543	8	0.68421052631579
58	397543	9	0
58	397543	10	0.25
58	397543	11	0.7
58	397543	12	1
58	397543	13	0.16666666666667
58	397543	14	0.125
58	397543	15	0.25
58	397543	16	0.4
58	397543	17	0.6
58	397543	18	1
58	397543	19	0.375
58	397543	20	1
58	397543	21	0.42857142857143
58	397543	22	1
58	397543	23	1
58	397543	24	2
58	397543	25	2
58	397543	26	0.8
58	397543	27	0.33333333333333
58	397543	28	1
58	397543	29	1.5
58	397543	30	1.5
58	397543	31	0.4
58	397543	32	1.2
58	397543	33	2
58	397543	34	1
58	397543	35	0.85714285714286
58	397543	36	1
58	397543	37	1
58	397543	38	0.75
58	397543	39	1
58	397543	40	1
58	397543	41	1
58	397543	42	0
58	397543	43	2
58	397543	44	1
58	397543	45	1.8
58	397543	46	1.5
58	397543	47	0.66666666666667
58	397543	48	1
58	397543	49	1
58	397543	50	1.6666666666667
58	397543	51	1.3333333333333
58	397543	52	1
58	397543	53	0
58	397543	54	1
58	397543	55	2
58	397543	56	0
58	397543	57	0
58	397543	58	2
58	397543	59	0
58	397543	60	0
58	397543	61	1
58	397543	62	2
58	397543	63	0
58	397543	64	1.3333333333333
58	397543	65	2
58	397543	66	0.66666666666667
58	397543	67	1.25
58	397543	68	1
58	397543	69	1
58	397543	70	3
58	397543	71	1
58	397543	72	3
58	397543	73	1
58	397543	74	0.5
58	397543	75	0
58	397543	76	2
vector 59  abilene_network.client[4]  hdistance[4]  ETV
59	397543	1	0
59	397543	2	0
59	397543	3	0
59	397543	4	0
59	397543	5	0
59	397543	6	0
59	397543	7	0
59	397543	8	0
59	397543	9	0
59	397543	10	1
59	397543	11	1
59	397543	12	0.83333333333333
59	397543	13	0.8
59	397543	14	0
59	397543	15	0.57142857142857
59	397543	16	0
59	397543	17	0.25
59	397543	18	2
59	397543	19	0
59	397543	20	0.57142857142857
59	397543	21	1.2
59	397543	22	0.3
59	397543	23	2
59	397543	24	1
59	397543	25	1.1428571428571
59	397543	26	0
59	397543	27	0
59	397543	28	1
59	397543	29	0.5
59	397543	30	1.6
59	397543	31	0.5
59	397543	32	1.3333333333333
59	397543	33	1
59	397543	34	0.5
59	397543	35	1
59	397543	36	0.33333333333333
59	397543	37	0
59	397543	38	1.3333333333333
59	397543	39	0
59	397543	40	1
59	397543	41	0
59	397543	42	1
59	397543	43	1
59	397543	44	1.2
59	397543	45	2
59	397543	46	2
59	397543	47	0
59	397543	48	2
59	397543	49	0.8
59	397543	50	1
59	397543	51	1.3333333333333
59	397543	52	0
59	397543	53	0.66666666666667
59	397543	54	1
59	397543	55	4
59	397543	56	2
59	397543	57	0.66666666666667
59	397543	58	2
59	397543	59	1
59	397543	60	0
59	397543	61	0
59	397543	62	1.4
59	397543	63	1.5
59	397543	64	2
59	397543	65	1
59	397543	66	2
59	397543	67	1.5
59	397543	68	2
59	397543	69	2.5
59	397543	70	0
59	397543	71	0
59	397543	72	2
59	397543	73	0
59	397543	74	0
59	397543	75	1
59	397543	76	0
vector 60  abilene_network.client[5]  hdistance[5]  ETV
60	397543	1	0
60	397543	2	0
60	397543	3	0
60	397543	4	0
60	397543	5	0
60	397543	6	0
60	397543	7	0
60	397543	8	0
60	397543	9	0.30769230769231
60	397543	10	1
60	397543	11	0
60	397543	12	0
60	397543	13	0.18181818181818
60	397543	14	0.625
60	397543	15	0
60	397543	16	0.4
60	397543	17	0.28571428571429
60	397543	18	1
60	397543	19	1
60	397543	20	1
60	397543	21	1
60	397543	22	0
60	397543	23	2
60	397543	24	0
60	397543	25	1
60	397543	26	1
60	397543	27	0.75
60	397543	28	1
60	397543	29	0
60	397543	30	1.875
60	397543	31	0
60	397543	32	0.28571428571429
60	397543	33	0
60	397543	34	0.8
60	397543	35	1.2
60	397543	36	1.5
60	397543	37	0
60	397543	38	2
60	397543	39	1.25
60	397543	40	0.75
60	397543	41	0
60	397543	42	2
60	397543	43	0.42857142857143
60	397543	44	1
60	397543	45	0
60	397543	46	1
60	397543	47	0.33333333333333
60	397543	48	2.25
60	397543	49	1
60	397543	50	1
60	397543	51	2
60	397543	52	1
60	397543	53	1
60	397543	54	2
60	397543	55	0
60	397543	56	1
60	397543	57	1
60	397543	58	1
60	397543	59	2.25
60	397543	60	1
60	397543	61	1
60	397543	62	2
60	397543	63	0
60	397543	64	3.6666666666667
60	397543	65	0
60	397543	66	3.5
60	397543	67	1
60	397543	68	2
60	397543	69	3
60	397543	70	4
60	397543	71	0
60	397543	72	0
60	397543	73	0.66666666666667
60	397543	74	1
60	397543	75	0
60	397543	76	4
vector 61  abilene_network.client[6]  hdistance[6]  ETV
61	397543	1	0
61	397543	2	0
61	397543	3	0
61	397543	4	0
61	397543	5	0
61	397543	6	0
61	397543	7	0
61	397543	8	0
61	397543	9	0.066666666666667
61	397543	10	0
61	397543	11	0
61	397543	12	0.73333333333333
61	397543	13	0.41176470588235
61	397543	14	0
61	397543	15	1
61	397543	16	0
61	397543	17	0.1
61	397543	18	0.15384615384615
61	397543	19	1
61	397543	20	0.2
61	397543	21	1
61	397543	22	0.5
61	397543	23	1
61	397543	24	0.33333333333333
61	397543	25	0
61	397543	26	1.1428571428571
61	397543	27	1.6666666666667
61	397543	28	0
61	397543	29	0
61	397543	30	0.85714285714286
61	397543	31	0.22222222222222
61	397543	32	0
61	397543	33	0.66666666666667
61	397543	34	0.25
61	397543	35	0.375
61	397543	36	1
61	397543	37	1
61	397543	38	1
61	397543	39	0
61	397543	40	0
61	397543	41	1
61	397543	42	1.5
61	397543	43	0.33333333333333
61	397543	44	1
61	397543	45	1.6666666666667
61	397543	46	0
61	397543	47	1
61	397543	48	1
61	397543	49	1
61	397543	50	3
61	397543	51	2.4
61	397543	52	1.6
61	397543	53	0
61	397543	54	1
61	397543	55	2.5
61	397543	56	2
61	397543	57	2
61	397543	58	0
61	397543	59	2
61	397543	60	1.5
61	397543	61	1
61	397543	62	0
61	397543	63	1
61	397543	64	3.3333333333333
61	397543	65	3
61	397543	66	4
61	397543	67	2
61	397543	68	1
61	397543	69	0
61	397543	70	0
61	397543	71	2
61	397543	72	2
61	397543	73	1.5
61	397543	74	1.5
61	397543	75	1
61	397543	76	3
vector 62  abilene_network.client[7]  hdistance[7]  ETV
62	397543	1	0
62	397543	2	0
62	397543	3	0
62	397543	4	0
62	397543	5	0
62	397543	6	0.037037037037037
62	397543	7	0
62	397543	8	0
62	397543	9	0
62	397543	10	0
62	397543	11	0
62	397543	12	1
62	397543	13	0
62	397543	14	1
62	397543	15	0
62	397543	16	0.9
62	397543	17	1
62	397543	18	0.33333333333333
62	397543	19	0
62	397543	20	0.25
62	397543	21	0
62	397543	22	0.28571428571429
62	397543	23	0
62	397543	24	1.3333333333333
62	397543	25	1
62	397543	26	1.375
62	397543	27	1
62	397543	28	0
62	397543	29	1
62	397543	30	1
62	397543	31	0.85714285714286
62	397543	32	1
62	397543	33	2
62	397543	34	0
62	397543	35	1
62	397543	36	0
62	397543	37	2
62	397543	38	1
62	397543	39	0
62	397543	40	0.25
62	397543	41	1.8
62	397543	42	1
62	397543	43	0
62	397543	44	0.5
62	397543	45	2.25
62	397543	46	0.8
62	397543	47	0.8
62	397543	48	0.33333333333333
62	397543	49	2
62	397543	50	1
62	397543	51	2
62	397543	52	0.4
62	397543	53	0
62	397543	54	0
62	397543	55	0
62	397543	56	3
62	397543	57	1.3333333333333
62	397543	58	1
62	397543	59	1
62	397543	60	1
62	397543	61	0.4
62	397543	62	1.6
62	397543	63	0.25
62	397543	64	1
62	397543	65	1
62	397543	66	2.5
62	397543	67	2
62	397543	68	0.33333333333333
62	397543	69	0
62	397543	70	0
62	397543	71	2
62	397543	72	3
62	397543	73	2
62	397543	74	1.3333333333333
62	397543	75	0
62	397543	76	1
vector 63  abilene_network.client[8]  hdistance[8]  ETV
63	397543	1	0
63	397543	2	0
63	397543	3	0
63	397543	4	0
63	397543	5	0
63	397543	6	0
63	397543	7	0
63	397543	8	0
63	397543	9	0.5
63	397543	10	0
63	397543	11	0.2
63	397543	12	0
63	397543	13	0
63	397543	14	0.45454545454545
63	397543	15	0
63	397543	16	1
63	397543	17	0
63	397543	18	1
63	397543	19	0
63	397543	20	0
63	397543	21	0
63	397543	22	0
63	397543	23	0.6
63	397543	24	1
63	397543	25	1.3333333333333
63	397543	26	1.3333333333333
63	397543	27	0.88888888888889
63	397543	28	0.66666666666667
63	397543	29	0
63	397543	30	0.16666666666667
63	397543	31	1
63	397543	32	2
63	397543	33	0.33333333333333
63	397543	34	1
63	397543	35	0
63	397543	36	0
63	397543	37	1.6666666666667
63	397543	38	0
63	397543	39	1
63	397543	40	1
63	397543	41	1
63	397543	42	2
63	397543	43	0.6
63	397543	44	1.6
63	397543	45	1.25
63	397543	46	0.66666666666667
63	397543	47	0
63	397543	48	1
63	397543	49	1
63	397543	50	1.25
63	397543	51	2
63	397543	52	0
63	397543	53	1
63	397543	54	0
63	397543	55	1
63	397543	56	2.3333333333333
63	397543	57	2
63	397543	58	2
63	397543	59	0
63	397543	60	0.66666666666667
63	397543	61	0.75
63	397543	62	2
63	397543	63	1
63	397543	64	2
63	397543	65	2
63	397543	66	0
63	397543	67	0
63	397543	68	0
63	397543	69	1
63	397543	70	1
63	397543	71	2
63	397543	72	3.3333333333333
63	397543	73	2
63	397543	74	0
63	397543	75	2.3333333333333
63	397543	76	2
vector 64  abilene_network.client[9]  hdistance[9]  ETV
64	397543	1	0
64	397543	2	0
64	397543	3	0
64	397543	4	0
64	397543	5	0
64	397543	6	0
64	397543	7	0
64	397543	8	0
64	397543	9	0
64	397543	10	0
64	397543	11	0.11111111111111
64	397543	12	0
64	397543	13	0
64	397543	14	0.5
64	397543	15	1
64	397543	16	0.81818181818182
64	397543	17	1
64	397543	18	0.083333333333333
64	397543	19	0.5
64	397543	20	0.16666666666667
64	397543	21	1
64	397543	22	0.125
64	397543	23	0.33333333333333
64	397543	24	0
64	397543	25	2
64	397543	26	1.5
64	397543	27	0.5
64	397543	28	0.5
64	397543	29	1
64	397543	30	0.75
64	397543	31	0
64	397543	32	2
64	397543	33	0.2
64	397543	34	2
64	397543	35	0.66666666666667
64	397543	36	0.66666666666667
64	397543	37	2
64	397543	38	0
64	397543	39	1
64	397543	40	0.66666666666667
64	397543	41	0
64	397543	42	1.5
64	397543	43	1
64	397543	44	1.75
64	397543	45	0.75
64	397543	46	0
64	397543	47	1.3333333333333
64	397543	48	0
64	397543	49	0
64	397543	50	0.66666666666667
64	397543	51	2.5
64	397543	52	2
64	397543	53	0
64	397543	54	1.6666666666667
64	397543	55	1.6666666666667
64	397543	56	2
64	397543	57	0
64	397543	58	0
64	397543	59	2
64	397543	60	1
64	397543	61	4
64	397543	62	1
64	397543	63	2
64	397543	64	1.6666666666667
64	397543	65	1.5
64	397543	66	2
64	397543	67	2
64	397543	68	0
64	397543	69	1.75
64	397543	70	0
64	397543	71	1
64	397543	72	1
64	397543	73	0