version 2
run General-7-20140102-00:49:20-25383
attr D lce
attr F spr
attr R lru
attr a 1
attr configname General
attr csize 10^5
attr datetime 20140102-00:49:20
attr experiment General
attr inifile omnetpp.ini
attr iterationvars "$net=simple_scenario_cache_in_the_core, $rep=0, $a=1, $F=spr, $ttl=1000, $D=lce, $R=lru, $csize=10^5"
attr iterationvars2 "$net=simple_scenario_cache_in_the_core, $rep=0, $a=1, $F=spr, $ttl=1000, $D=lce, $R=lru, $csize=10^5, $repetition=0"
attr measurement "$net=simple_scenario_cache_in_the_core, $rep=0, $a=1, $F=spr, $ttl=1000, $D=lce, $R=lru, $csize=10^5"
attr net simple_scenario_cache_in_the_core
attr network networks.${net=simple_scenario_cache_in_the_core,simple_scenario_cache_at_border}_network
attr processid 25383
attr rep 0
attr repetition 0
attr replication #0
attr resultdir results
attr runnumber 7
attr seedset 0
attr ttl 1000

vector 42  simple_scenario_cache_in_the_core_network.node[0].content_store  hit_node[0]  ETV
42	2248513	1	1
42	2248513	2	1
42	2248513	3	1
42	2248513	4	1
42	2248513	5	1
42	2248513	6	1
42	2248513	7	1
42	2248513	8	1
42	2248513	9	1
42	2248513	10	1
42	2248513	11	1
42	2248513	12	1
42	2248513	13	1
42	2248513	14	1
42	2248513	15	1
42	2248513	16	1
42	2248513	17	1
42	2248513	18	1
42	2248513	19	1
42	2248513	20	1
42	2248513	21	1
42	2248513	22	1
42	2248513	23	1
42	2248513	24	1
42	2248513	25	1
42	2248513	26	1
42	2248513	27	1
42	2248513	28	1
42	2248513	29	1
42	2248513	30	1
42	2248513	31	1
42	2248513	32	1
42	2248513	33	1
42	2248513	34	1
42	2248513	35	1
42	2248513	36	1
42	2248513	37	1
42	2248513	38	1
42	2248513	39	1
42	2248513	40	1
42	2248513	41	1
42	2248513	42	1
42	2248513	43	1
42	2248513	44	1
42	2248513	45	1
42	2248513	46	1
42	2248513	47	1
42	2248513	48	1
42	2248513	49	1
42	2248513	50	1
42	2248513	51	1
42	2248513	52	1
42	2248513	53	1
42	2248513	54	1
42	2248513	55	1
42	2248513	56	1
42	2248513	57	1
42	2248513	58	1
42	2248513	59	1
42	2248513	60	1
42	2248513	61	1
42	2248513	62	1
42	2248513	63	1
42	2248513	64	1
42	2248513	65	1
42	2248513	66	1
42	2248513	67	1
42	2248513	68	1
42	2248513	69	1
42	2248513	70	1
42	2248513	71	1
42	2248513	72	1
42	2248513	73	1
42	2248513	74	1
42	2248513	75	1
42	2248513	76	1
42	2248513	77	1
42	2248513	78	1
42	2248513	79	1
42	2248513	80	1
42	2248513	81	1
42	2248513	82	1
42	2248513	83	1
42	2248513	84	1
42	2248513	85	1
42	2248513	86	1
42	2248513	87	1
42	2248513	88	1
42	2248513	89	1
42	2248513	90	1
42	2248513	91	1
42	2248513	92	1
42	2248513	93	1
42	2248513	94	1
42	2248513	95	1
42	2248513	96	1
42	2248513	97	1
42	2248513	98	1
42	2248513	99	1
42	2248513	100	1
42	2248513	101	1
42	2248513	102	1
42	2248513	103	1
42	2248513	104	1
42	2248513	105	1
42	2248513	106	1
42	2248513	107	1
42	2248513	108	1
42	2248513	109	1
42	2248513	110	1
42	2248513	111	1
42	2248513	112	1
42	2248513	113	1
42	2248513	114	1
42	2248513	115	1
42	2248513	116	1
42	2248513	117	1
42	2248513	118	1
42	2248513	119	1
42	2248513	120	1
42	2248513	121	1
42	2248513	122	1
42	2248513	123	1
42	2248513	124	1
42	2248513	125	1
42	2248513	126	1
42	2248513	127	1
42	2248513	128	1
42	2248513	129	1
42	2248513	130	1
42	2248513	131	1
42	2248513	132	1
42	2248513	133	1
42	2248513	134	1
42	2248513	135	1
42	2248513	136	1
42	2248513	137	1
42	2248513	138	1
42	2248513	139	1
42	2248513	140	1
42	2248513	141	1
42	2248513	142	1
42	2248513	143	1
42	2248513	144	1
42	2248513	145	1
42	2248513	146	1
42	2248513	147	1
42	2248513	148	1
42	2248513	149	1
42	2248513	150	1
42	2248513	151	1
42	2248513	152	1
42	2248513	153	1
42	2248513	154	1
42	2248513	155	1
42	2248513	156	1
42	2248513	157	1
42	2248513	158	1
42	2248513	159	1
42	2248513	160	1
42	2248513	161	1
42	2248513	162	1
42	2248513	163	1
42	2248513	164	1
42	2248513	165	1
42	2248513	166	1
42	2248513	167	1
42	2248513	168	1
42	2248513	169	1
42	2248513	170	1
42	2248513	171	1
42	2248513	172	1
42	2248513	173	1
42	2248513	174	1
42	2248513	175	1
42	2248513	176	1
42	2248513	177	1
42	2248513	178	1
42	2248513	179	1
42	2248513	180	1
42	2248513	181	1
42	2248513	182	1
42	2248513	183	1
42	2248513	184	1
42	2248513	185	1
42	2248513	186	1
42	2248513	187	1
42	2248513	188	1
42	2248513	189	1
42	2248513	190	1
42	2248513	191	1
42	2248513	192	1
42	2248513	193	1
42	2248513	194	1
42	2248513	195	1
42	2248513	196	1
42	2248513	197	1
42	2248513	198	1
42	2248513	199	1
42	2248513	200	1
42	2248513	201	1
42	2248513	202	1
42	2248513	203	1
42	2248513	204	1
42	2248513	205	1
42	2248513	206	1
42	2248513	207	1
42	2248513	208	1
42	2248513	209	1
42	2248513	210	1
42	2248513	211	1
42	2248513	212	1
42	2248513	213	1
42	2248513	214	1
42	2248513	215	1
42	2248513	216	1
42	2248513	217	1
42	2248513	218	1
42	2248513	219	1
42	2248513	220	1
42	2248513	221	1
42	2248513	222	1
42	2248513	223	1
42	2248513	224	1
42	2248513	225	1
42	2248513	226	1
42	2248513	227	1
42	2248513	228	1
42	2248513	229	1
42	2248513	230	1
42	2248513	231	1
42	2248513	232	1
42	2248513	233	1
42	2248513	234	1
42	2248513	235	1
42	2248513	236	1
42	2248513	237	1
42	2248513	238	1
42	2248513	239	1
42	2248513	240	1
42	2248513	241	1
42	2248513	242	1
42	2248513	243	1
42	2248513	244	1
42	2248513	245	1
42	2248513	246	1
42	2248513	247	1
42	2248513	248	1
42	2248513	249	1
42	2248513	250	1
42	2248513	251	1
42	2248513	252	1
42	2248513	253	1
42	2248513	254	1
42	2248513	255	1
42	2248513	256	1
42	2248513	257	1
42	2248513	258	1
42	2248513	259	1
42	2248513	260	1
42	2248513	261	1
42	2248513	262	1
42	2248513	263	1
42	2248513	264	1
42	2248513	265	1
42	2248513	266	1
42	2248513	267	1
42	2248513	268	1
42	2248513	269	1
42	2248513	270	1
42	2248513	271	1
42	2248513	272	1
42	2248513	273	1
42	2248513	274	1
42	2248513	275	1
42	2248513	276	1
42	2248513	277	1
42	2248513	278	1
42	2248513	279	1
42	2248513	280	1
42	2248513	281	1
42	2248513	282	1
42	2248513	283	1
42	2248513	284	1
42	2248513	285	1
42	2248513	286	1
42	2248513	287	1
42	2248513	288	1
42	2248513	289	1
42	2248513	290	1
42	2248513	291	1
42	2248513	292	1
42	2248513	293	1
42	2248513	294	1
42	2248513	295	1
42	2248513	296	1
42	2248513	297	1
42	2248513	298	1
42	2248513	299	1
42	2248513	300	1
42	2248513	301	1
42	2248513	302	1
42	2248513	303	1
42	2248513	304	1
42	2248513	305	1
42	2248513	306	1
42	2248513	307	1
42	2248513	308	1
42	2248513	309	1
42	2248513	310	1
42	2248513	311	1
42	2248513	312	1
42	2248513	313	1
42	2248513	314	1
42	2248513	315	1
42	2248513	316	1
42	2248513	317	1
42	2248513	318	1
42	2248513	319	1
42	2248513	320	1
42	2248513	321	1
42	2248513	322	1
42	2248513	323	1
42	2248513	324	1
42	2248513	325	1
42	2248513	326	1
42	2248513	327	1
42	2248513	328	1
42	2248513	329	1
42	2248513	330	1
42	2248513	331	1
42	2248513	332	1
42	2248513	333	1
42	2248513	334	1
42	2248513	335	1
42	2248513	336	1
42	2248513	337	1
42	2248513	338	1
42	2248513	339	1
42	2248513	340	1
42	2248513	341	1
42	2248513	342	1
42	2248513	343	1
42	2248513	344	1
42	2248513	345	1
42	2248513	346	1
42	2248513	347	1
42	2248513	348	1
42	2248513	349	1
42	2248513	350	1
42	2248513	351	1
42	2248513	352	1
42	2248513	353	1
42	2248513	354	1
42	2248513	355	1
42	2248513	356	1
42	2248513	357	1
42	2248513	358	1
42	2248513	359	1
42	2248513	360	1
42	2248513	361	1
42	2248513	362	1
42	2248513	363	1
42	2248513	364	1
42	2248513	365	1
42	2248513	366	1
42	2248513	367	1
42	2248513	368	1
42	2248513	369	1
42	2248513	370	1
42	2248513	371	1
42	2248513	372	1
42	2248513	373	1
42	2248513	374	1
42	2248513	375	1
42	2248513	376	1
42	2248513	377	1
42	2248513	378	1
42	2248513	379	1
42	2248513	380	1
42	2248513	381	1
42	2248513	382	1
42	2248513	383	1
42	2248513	384	1
42	2248513	385	1
42	2248513	386	1
42	2248513	387	1
42	2248513	388	1
42	2248513	389	1
42	2248513	390	1
42	2248513	391	1
42	2248513	392	1
42	2248513	393	1
42	2248513	394	1
42	2248513	395	1
42	2248513	396	1
42	2248513	397	1
42	2248513	398	1
42	2248513	399	1
42	2248513	400	1
42	2248513	401	1
42	2248513	402	1
42	2248513	403	1
42	2248513	404	1
42	2248513	405	1
42	2248513	406	1
42	2248513	407	1
42	2248513	408	1
42	2248513	409	1
42	2248513	410	1
42	2248513	411	1
42	2248513	412	1
42	2248513	413	1
42	2248513	414	1
42	2248513	415	1
42	2248513	416	1
42	2248513	417	1
42	2248513	418	1
42	2248513	419	1
42	2248513	420	1
42	2248513	421	1
42	2248513	422	1
42	2248513	423	1
42	2248513	424	1
42	2248513	425	1
42	2248513	426	1
42	2248513	427	1
42	2248513	428	1
42	2248513	429	1
42	2248513	430	1
42	2248513	431	1
42	2248513	432	1
42	2248513	433	1
42	2248513	434	1
42	2248513	435	1
42	2248513	436	1
42	2248513	437	1
42	2248513	438	1
42	2248513	439	1
42	2248513	440	1
42	2248513	441	1
42	2248513	442	1
42	2248513	443	1
42	2248513	444	1
42	2248513	445	1
42	2248513	446	1
42	2248513	447	1
42	2248513	448	1
42	2248513	449	1
42	2248513	450	1
42	2248513	451	1
42	2248513	452	1
42	2248513	453	1
42	2248513	454	1
42	2248513	455	1
42	2248513	456	1
42	2248513	457	1
42	2248513	458	1
42	2248513	459	1
42	2248513	460	1
42	2248513	461	1
42	2248513	462	1
42	2248513	463	1
42	2248513	464	1
42	2248513	465	1
42	2248513	466	1
42	2248513	467	1
42	2248513	468	1
42	2248513	469	1
42	2248513	470	1
42	2248513	471	1
42	2248513	472	1
42	2248513	473	1
42	2248513	474	1
42	2248513	475	1
42	2248513	476	1
42	2248513	477	1
42	2248513	478	1
42	2248513	479	1
42	2248513	480	1
42	2248513	481	1
42	2248513	482	1
42	2248513	483	1
42	2248513	484	1
42	2248513	485	1
42	2248513	486	1
42	2248513	487	1
42	2248513	488	1
42	2248513	489	1
42	2248513	490	1
42	2248513	491	1
42	2248513	492	1
42	2248513	493	1
42	2248513	494	1
42	2248513	495	1
42	2248513	496	1
42	2248513	497	1
42	2248513	498	1
42	2248513	499	1
42	2248513	500	1
42	2248513	501	1
42	2248513	502	1
42	2248513	503	1
42	2248513	504	1
42	2248513	505	1
42	2248513	506	1
42	2248513	507	1
42	2248513	508	1
42	2248513	509	1
42	2248513	510	1
42	2248513	511	1
42	2248513	512	1
42	2248513	513	1
42	2248513	514	1
42	2248513	515	1
42	2248513	516	1
42	2248513	517	1
42	2248513	518	1
42	2248513	519	1
42	2248513	520	1
42	2248513	521	1
42	2248513	522	1
42	2248513	523	1
42	2248513	524	1
42	2248513	525	1
42	2248513	526	1
42	2248513	527	1
42	2248513	528	1
42	2248513	529	1
42	2248513	530	1
42	2248513	531	1
42	2248513	532	1
42	2248513	533	1
42	2248513	534	1
42	2248513	535	1
42	2248513	536	1
42	2248513	537	1
42	2248513	538	1
42	2248513	539	1
42	2248513	540	1
42	2248513	541	1
42	2248513	542	1
42	2248513	543	1
42	2248513	544	1
42	2248513	545	1
42	2248513	546	1
42	2248513	547	1
42	2248513	548	1
42	2248513	549	1
42	2248513	550	1
42	2248513	551	1
42	2248513	552	1
42	2248513	553	1
42	2248513	554	1
42	2248513	555	1
42	2248513	556	1
42	2248513	557	1
42	2248513	558	1
42	2248513	559	1
42	2248513	560	1
42	2248513	561	1
42	2248513	562	1
42	2248513	563	1
42	2248513	564	1
42	2248513	565	1
42	2248513	566	1
42	2248513	567	1
42	2248513	568	1
42	2248513	569	1
42	2248513	570	1
42	2248513	571	1
42	2248513	572	1
42	2248513	573	1
42	2248513	574	1
42	2248513	575	1
42	2248513	576	1
42	2248513	577	1
42	2248513	578	1
42	2248513	579	1
42	2248513	580	1
42	2248513	581	1
42	2248513	582	1
42	2248513	583	1
42	2248513	584	1
42	2248513	585	1
42	2248513	586	1
42	2248513	587	1
42	2248513	588	1
42	2248513	589	1
42	2248513	590	1
42	2248513	591	1
42	2248513	592	1
42	2248513	593	1
42	2248513	594	1
42	2248513	595	1
42	2248513	596	1
42	2248513	597	1
42	2248513	598	1
42	2248513	599	1
42	2248513	600	1
42	2248513	601	1
42	2248513	602	1
42	2248513	603	1
42	2248513	604	1
42	2248513	605	1
42	2248513	606	1
42	2248513	607	1
42	2248513	608	1
42	2248513	609	1
42	2248513	610	1
42	2248513	611	1
42	2248513	612	1
42	2248513	613	1
42	2248513	614	1
42	2248513	615	1
42	2248513	616	1
42	2248513	617	1
42	2248513	618	1
42	2248513	619	1
42	2248513	620	1
42	2248513	621	1
42	2248513	622	1
42	2248513	623	1
42	2248513	624	1
42	2248513	625	1
42	2248513	626	1
42	2248513	627	1
42	2248513	628	1
42	2248513	629	1
42	2248513	630	1
42	2248513	631	1
42	2248513	632	1
42	2248513	633	1
42	2248513	634	1
42	2248513	635	1
42	2248513	636	1
42	2248513	637	1
42	2248513	638	1
42	2248513	639	1
42	2248513	640	1
42	2248513	641	1
42	2248513	642	1
42	2248513	643	1
42	2248513	644	1
42	2248513	645	1
42	2248513	646	1
42	2248513	647	1
42	2248513	648	1
42	2248513	649	1
42	2248513	650	1
42	2248513	651	1
42	2248513	652	1
42	2248513	653	1
42	2248513	654	1
42	2248513	655	1
42	2248513	656	1
42	2248513	657	1
42	2248513	658	1
42	2248513	659	1
42	2248513	660	1
42	2248513	661	1
42	2248513	662	1
42	2248513	663	1
42	2248513	664	1
42	2248513	665	1
42	2248513	666	1
42	2248513	667	1
42	2248513	668	1
42	2248513	669	1
42	2248513	670	1
42	2248513	671	1
42	2248513	672	1
42	2248513	673	1
42	2248513	674	1
42	2248513	675	1
42	2248513	676	1
42	2248513	677	1
42	2248513	678	1
42	2248513	679	1
42	2248513	680	1
42	2248513	681	1
42	2248513	682	1
42	2248513	683	1
42	2248513	684	1
42	2248513	685	1
42	2248513	686	1
42	2248513	687	1
42	2248513	688	1
42	2248513	689	1
42	2248513	690	1
42	2248513	691	1
42	2248513	692	1
42	2248513	693	1
42	2248513	694	1
42	2248513	695	1
42	2248513	696	1
42	2248513	697	1
42	2248513	698	1
42	2248513	699	1
42	2248513	700	1
42	2248513	701	1
42	2248513	702	1
42	2248513	703	1
42	2248513	704	1
42	2248513	705	1
42	2248513	706	1
42	2248513	707	1
42	2248513	708	1
42	2248513	709	1
42	2248513	710	1
42	2248513	711	1
42	2248513	712	1
42	2248513	713	1
42	2248513	714	1
42	2248513	715	1
42	2248513	716	1
42	2248513	717	1
42	2248513	718	1
42	2248513	719	1
42	2248513	720	1
42	2248513	721	1
42	2248513	722	1
42	2248513	723	1
42	2248513	724	1
42	2248513	725	1
42	2248513	726	1
42	2248513	727	1
42	2248513	728	1
42	2248513	729	1
42	2248513	730	1
42	2248513	731	1
42	2248513	732	1
42	2248513	733	1
42	2248513	734	1
42	2248513	735	1
42	2248513	736	1
42	2248513	737	1
42	2248513	738	1
42	2248513	739	1
42	2248513	740	1
42	2248513	741	1
42	2248513	742	1
42	2248513	743	1
42	2248513	744	1
42	2248513	745	1
42	2248513	746	1
42	2248513	747	1
42	2248513	748	1
42	2248513	749	1
42	2248513	750	1
vector 43  simple_scenario_cache_in_the_core_network.node[1].content_store  hit_node[1]  ETV
43	2248513	1	-nan
43	2248513	2	-nan
43	2248513	3	-nan
43	2248513	4	-nan
43	2248513	5	-nan
43	2248513	6	-nan
43	2248513	7	-nan
43	2248513	8	-nan
43	2248513	9	-nan
43	2248513	10	-nan
43	2248513	11	-nan
43	2248513	12	-nan
43	2248513	13	-nan
43	2248513	14	-nan
43	2248513	15	-nan
43	2248513	16	-nan
43	2248513	17	-nan
43	2248513	18	-nan
43	2248513	19	-nan
43	2248513	20	-nan
43	2248513	21	-nan
43	2248513	22	-nan
43	2248513	23	-nan
43	2248513	24	-nan
43	2248513	25	-nan
43	2248513	26	-nan
43	2248513	27	-nan
43	2248513	28	-nan
43	2248513	29	-nan
43	2248513	30	-nan
43	2248513	31	-nan
43	2248513	32	-nan
43	2248513	33	-nan
43	2248513	34	-nan
43	2248513	35	-nan
43	2248513	36	-nan
43	2248513	37	-nan
43	2248513	38	-nan
43	2248513	39	-nan
43	2248513	40	-nan
43	2248513	41	-nan
43	2248513	42	-nan
43	2248513	43	-nan
43	2248513	44	-nan
43	2248513	45	-nan
43	2248513	46	-nan
43	2248513	47	-nan
43	2248513	48	-nan
43	2248513	49	-nan
43	2248513	50	-nan
43	2248513	51	-nan
43	2248513	52	-nan
43	2248513	53	-nan
43	2248513	54	-nan
43	2248513	55	-nan
43	2248513	56	-nan
43	2248513	57	-nan
43	2248513	58	-nan
43	2248513	59	-nan
43	2248513	60	-nan
43	2248513	61	-nan
43	2248513	62	-nan
43	2248513	63	-nan
43	2248513	64	-nan
43	2248513	65	-nan
43	2248513	66	-nan
43	2248513	67	-nan
43	2248513	68	-nan
43	2248513	69	-nan
43	2248513	70	-nan
43	2248513	71	-nan
43	2248513	72	-nan
43	2248513	73	-nan
43	2248513	74	-nan
43	2248513	75	-nan
43	2248513	76	-nan
43	2248513	77	-nan
43	2248513	78	-nan
43	2248513	79	-nan
43	2248513	80	-nan
43	2248513	81	-nan
43	2248513	82	-nan
43	2248513	83	-nan
43	2248513	84	-nan
43	2248513	85	-nan
43	2248513	86	-nan
43	2248513	87	-nan
43	2248513	88	-nan
43	2248513	89	-nan
43	2248513	90	-nan
43	2248513	91	-nan
43	2248513	92	-nan
43	2248513	93	-nan
43	2248513	94	-nan
43	2248513	95	-nan
43	2248513	96	-nan
43	2248513	97	-nan
43	2248513	98	-nan
43	2248513	99	-nan
43	2248513	100	-nan
43	2248513	101	-nan
43	2248513	102	-nan
43	2248513	103	-nan
43	2248513	104	-nan
43	2248513	105	-nan
43	2248513	106	-nan
43	2248513	107	-nan
43	2248513	108	-nan
43	2248513	109	-nan
43	2248513	110	-nan
43	2248513	111	-nan
43	2248513	112	-nan
43	2248513	113	-nan
43	2248513	114	-nan
43	2248513	115	-nan
43	2248513	116	-nan
43	2248513	117	-nan
43	2248513	118	-nan
43	2248513	119	-nan
43	2248513	120	-nan
43	2248513	121	-nan
43	2248513	122	-nan
43	2248513	123	-nan
43	2248513	124	-nan
43	2248513	125	-nan
43	2248513	126	-nan
43	2248513	127	-nan
43	2248513	128	-nan
43	2248513	129	-nan
43	2248513	130	-nan
43	2248513	131	-nan
43	2248513	132	-nan
43	2248513	133	-nan
43	2248513	134	-nan
43	2248513	135	-nan
43	2248513	136	-nan
43	2248513	137	-nan
43	2248513	138	-nan
43	2248513	139	-nan
43	2248513	140	-nan
43	2248513	141	-nan
43	2248513	142	-nan
43	2248513	143	-nan
43	2248513	144	-nan
43	2248513	145	-nan
43	2248513	146	-nan
43	2248513	147	-nan
43	2248513	148	-nan
43	2248513	149	-nan
43	2248513	150	-nan
43	2248513	151	-nan
43	2248513	152	-nan
43	2248513	153	-nan
43	2248513	154	-nan
43	2248513	155	-nan
43	2248513	156	-nan
43	2248513	157	-nan
43	2248513	158	-nan
43	2248513	159	-nan
43	2248513	160	-nan
43	2248513	161	-nan
43	2248513	162	-nan
43	2248513	163	-nan
43	2248513	164	-nan
43	2248513	165	-nan
43	2248513	166	-nan
43	2248513	167	-nan
43	2248513	168	-nan
43	2248513	169	-nan
43	2248513	170	-nan
43	2248513	171	-nan
43	2248513	172	-nan
43	2248513	173	-nan
43	2248513	174	-nan
43	2248513	175	-nan
43	2248513	176	-nan
43	2248513	177	-nan
43	2248513	178	-nan
43	2248513	179	-nan
43	2248513	180	-nan
43	2248513	181	-nan
43	2248513	182	-nan
43	2248513	183	-nan
43	2248513	184	-nan
43	2248513	185	-nan
43	2248513	186	-nan
43	2248513	187	-nan
43	2248513	188	-nan
43	2248513	189	-nan
43	2248513	190	-nan
43	2248513	191	-nan
43	2248513	192	-nan
43	2248513	193	-nan
43	2248513	194	-nan
43	2248513	195	-nan
43	2248513	196	-nan
43	2248513	197	-nan
43	2248513	198	-nan
43	2248513	199	-nan
43	2248513	200	-nan
43	2248513	201	-nan
43	2248513	202	-nan
43	2248513	203	-nan
43	2248513	204	-nan
43	2248513	205	-nan
43	2248513	206	-nan
43	2248513	207	-nan
43	2248513	208	-nan
43	2248513	209	-nan
43	2248513	210	-nan
43	2248513	211	-nan
43	2248513	212	-nan
43	2248513	213	-nan
43	2248513	214	-nan
43	2248513	215	-nan
43	2248513	216	-nan
43	2248513	217	-nan
43	2248513	218	-nan
43	2248513	219	-nan
43	2248513	220	-nan
43	2248513	221	-nan
43	2248513	222	-nan
43	2248513	223	-nan
43	2248513	224	-nan
43	2248513	225	-nan
43	2248513	226	-nan
43	2248513	227	-nan
43	2248513	228	-nan
43	2248513	229	-nan
43	2248513	230	-nan
43	2248513	231	-nan
43	2248513	232	-nan
43	2248513	233	-nan
43	2248513	234	-nan
43	2248513	235	-nan
43	2248513	236	-nan
43	2248513	237	-nan
43	2248513	238	-nan
43	2248513	239	-nan
43	2248513	240	-nan
43	2248513	241	-nan
43	2248513	242	-nan
43	2248513	243	-nan
43	2248513	244	-nan
43	2248513	245	-nan
43	2248513	246	-nan
43	2248513	247	-nan
43	2248513	248	-nan
43	2248513	249	-nan
43	2248513	250	-nan
43	2248513	251	-nan
43	2248513	252	-nan
43	2248513	253	-nan
43	2248513	254	-nan
43	2248513	255	-nan
43	2248513	256	-nan
43	2248513	257	-nan
43	2248513	258	-nan
43	2248513	259	-nan
43	2248513	260	-nan
43	2248513	261	-nan
43	2248513	262	-nan
43	2248513	263	-nan
43	2248513	264	-nan
43	2248513	265	-nan
43	2248513	266	-nan
43	2248513	267	-nan
43	2248513	268	-nan
43	2248513	269	-nan
43	2248513	270	-nan
43	2248513	271	-nan
43	2248513	272	-nan
43	2248513	273	-nan
43	2248513	274	-nan
43	2248513	275	-nan
43	2248513	276	-nan
43	2248513	277	-nan
43	2248513	278	-nan
43	2248513	279	-nan
43	2248513	280	-nan
43	2248513	281	-nan
43	2248513	282	-nan
43	2248513	283	-nan
43	2248513	284	-nan
43	2248513	285	-nan
43	2248513	286	-nan
43	2248513	287	-nan
43	2248513	288	-nan
43	2248513	289	-nan
43	2248513	290	-nan
43	2248513	291	-nan
43	2248513	292	-nan
43	2248513	293	-nan
43	2248513	294	-nan
43	2248513	295	-nan
43	2248513	296	-nan
43	2248513	297	-nan
43	2248513	298	-nan
43	2248513	299	-nan
43	2248513	300	-nan
43	2248513	301	-nan
43	2248513	302	-nan
43	2248513	303	-nan
43	2248513	304	-nan
43	2248513	305	-nan
43	2248513	306	-nan
43	2248513	307	-nan
43	2248513	308	-nan
43	2248513	309	-nan
43	2248513	310	-nan
43	2248513	311	-nan
43	2248513	312	-nan
43	2248513	313	-nan
43	2248513	314	-nan
43	2248513	315	-nan
43	2248513	316	-nan
43	2248513	317	-nan
43	2248513	318	-nan
43	2248513	319	-nan
43	2248513	320	-nan
43	2248513	321	-nan
43	2248513	322	-nan
43	2248513	323	-nan
43	2248513	324	-nan
43	2248513	325	-nan
43	2248513	326	-nan
43	2248513	327	-nan
43	2248513	328	-nan
43	2248513	329	-nan
43	2248513	330	-nan
43	2248513	331	-nan
43	2248513	332	-nan
43	2248513	333	-nan
43	2248513	334	-nan
43	2248513	335	-nan
43	2248513	336	-nan
43	2248513	337	-nan
43	2248513	338	-nan
43	2248513	339	-nan
43	2248513	340	-nan
43	2248513	341	-nan
43	2248513	342	-nan
43	2248513	343	-nan
43	2248513	344	-nan
43	2248513	345	-nan
43	2248513	346	-nan
43	2248513	347	-nan
43	2248513	348	-nan
43	2248513	349	-nan
43	2248513	350	-nan
43	2248513	351	-nan
43	2248513	352	-nan
43	2248513	353	-nan
43	2248513	354	-nan
43	2248513	355	-nan
43	2248513	356	-nan
43	2248513	357	-nan
43	2248513	358	-nan
43	2248513	359	-nan
43	2248513	360	-nan
43	2248513	361	-nan
43	2248513	362	-nan
43	2248513	363	-nan
43	2248513	364	-nan
43	2248513	365	-nan
43	2248513	366	-nan
43	2248513	367	-nan
43	2248513	368	-nan
43	2248513	369	-nan
43	2248513	370	-nan
43	2248513	371	-nan
43	2248513	372	-nan
43	2248513	373	-nan
43	2248513	374	-nan
43	2248513	375	-nan
43	2248513	376	-nan
43	2248513	377	-nan
43	2248513	378	-nan
43	2248513	379	-nan
43	2248513	380	-nan
43	2248513	381	-nan
43	2248513	382	-nan
43	2248513	383	-nan
43	2248513	384	-nan
43	2248513	385	-nan
43	2248513	386	-nan
43	2248513	387	-nan
43	2248513	388	-nan
43	2248513	389	-nan
43	2248513	390	-nan
43	2248513	391	-nan
43	2248513	392	-nan
43	2248513	393	-nan
43	2248513	394	-nan
43	2248513	395	-nan
43	2248513	396	-nan
43	2248513	397	-nan
43	2248513	398	-nan
43	2248513	399	-nan
43	2248513	400	-nan
43	2248513	401	-nan
43	2248513	402	-nan
43	2248513	403	-nan
43	2248513	404	-nan
43	2248513	405	-nan
43	2248513	406	-nan
43	2248513	407	-nan
43	2248513	408	-nan
43	2248513	409	-nan
43	2248513	410	-nan
43	2248513	411	-nan
43	2248513	412	-nan
43	2248513	413	-nan
43	2248513	414	-nan
43	2248513	415	-nan
43	2248513	416	-nan
43	2248513	417	-nan
43	2248513	418	-nan
43	2248513	419	-nan
43	2248513	420	-nan
43	2248513	421	-nan
43	2248513	422	-nan
43	2248513	423	-nan
43	2248513	424	-nan
43	2248513	425	-nan
43	2248513	426	-nan
43	2248513	427	-nan
43	2248513	428	-nan
43	2248513	429	-nan
43	2248513	430	-nan
43	2248513	431	-nan
43	2248513	432	-nan
43	2248513	433	-nan
43	2248513	434	-nan
43	2248513	435	-nan
43	2248513	436	-nan
43	2248513	437	-nan
43	2248513	438	-nan
43	2248513	439	-nan
43	2248513	440	-nan
43	2248513	441	-nan
43	2248513	442	-nan
43	2248513	443	-nan
43	2248513	444	-nan
43	2248513	445	-nan
43	2248513	446	-nan
43	2248513	447	-nan
43	2248513	448	-nan
43	2248513	449	-nan
43	2248513	450	-nan
43	2248513	451	-nan
43	2248513	452	-nan
43	2248513	453	-nan
43	2248513	454	-nan
43	2248513	455	-nan
43	2248513	456	-nan
43	2248513	457	-nan
43	2248513	458	-nan
43	2248513	459	-nan
43	2248513	460	-nan
43	2248513	461	-nan
43	2248513	462	-nan
43	2248513	463	-nan
43	2248513	464	-nan
43	2248513	465	-nan
43	2248513	466	-nan
43	2248513	467	-nan
43	2248513	468	-nan
43	2248513	469	-nan
43	2248513	470	-nan
43	2248513	471	-nan
43	2248513	472	-nan
43	2248513	473	-nan
43	2248513	474	-nan
43	2248513	475	-nan
43	2248513	476	-nan
43	2248513	477	-nan
43	2248513	478	-nan
43	2248513	479	-nan
43	2248513	480	-nan
43	2248513	481	-nan
43	2248513	482	-nan
43	2248513	483	-nan
43	2248513	484	-nan
43	2248513	485	-nan
43	2248513	486	-nan
43	2248513	487	-nan
43	2248513	488	-nan
43	2248513	489	-nan
43	2248513	490	-nan
43	2248513	491	-nan
43	2248513	492	-nan
43	2248513	493	-nan
43	2248513	494	-nan
43	2248513	495	-nan
43	2248513	496	-nan
43	2248513	497	-nan
43	2248513	498	-nan
43	2248513	499	-nan
43	2248513	500	-nan
43	2248513	501	-nan
43	2248513	502	-nan
43	2248513	503	-nan
43	2248513	504	-nan
43	2248513	505	-nan
43	2248513	506	-nan
43	2248513	507	-nan
43	2248513	508	-nan
43	2248513	509	-nan
43	2248513	510	-nan
43	2248513	511	-nan
43	2248513	512	-nan
43	2248513	513	-nan
43	2248513	514	-nan
43	2248513	515	-nan
43	2248513	516	-nan
43	2248513	517	-nan
43	2248513	518	-nan
43	2248513	519	-nan
43	2248513	520	-nan
43	2248513	521	-nan
43	2248513	522	-nan
43	2248513	523	-nan
43	2248513	524	-nan
43	2248513	525	-nan
43	2248513	526	-nan
43	2248513	527	-nan
43	2248513	528	-nan
43	2248513	529	-nan
43	2248513	530	-nan
43	2248513	531	-nan
43	2248513	532	-nan
43	2248513	533	-nan
43	2248513	534	-nan
43	2248513	535	-nan
43	2248513	536	-nan
43	2248513	537	-nan
43	2248513	538	-nan
43	2248513	539	-nan
43	2248513	540	-nan
43	2248513	541	-nan
43	2248513	542	-nan
43	2248513	543	-nan
43	2248513	544	-nan
43	2248513	545	-nan
43	2248513	546	-nan
43	2248513	547	-nan
43	2248513	548	-nan
43	2248513	549	-nan
43	2248513	550	-nan
43	2248513	551	-nan
43	2248513	552	-nan
43	2248513	553	-nan
43	2248513	554	-nan
43	2248513	555	-nan
43	2248513	556	-nan
43	2248513	557	-nan
43	2248513	558	-nan
43	2248513	559	-nan
43	2248513	560	-nan
43	2248513	561	-nan
43	2248513	562	-nan
43	2248513	563	-nan
43	2248513	564	-nan
43	2248513	565	-nan
43	2248513	566	-nan
43	2248513	567	-nan
43	2248513	568	-nan
43	2248513	569	-nan
43	2248513	570	-nan
43	2248513	571	-nan
43	2248513	572	-nan
43	2248513	573	-nan
43	2248513	574	-nan
43	2248513	575	-nan
43	2248513	576	-nan
43	2248513	577	-nan
43	2248513	578	-nan
43	2248513	579	-nan
43	2248513	580	-nan
43	2248513	581	-nan
43	2248513	582	-nan
43	2248513	583	-nan
43	2248513	584	-nan
43	2248513	585	-nan
43	2248513	586	-nan
43	2248513	587	-nan
43	2248513	588	-nan
43	2248513	589	-nan
43	2248513	590	-nan
43	2248513	591	-nan
43	2248513	592	-nan
43	2248513	593	-nan
43	2248513	594	-nan
43	2248513	595	-nan
43	2248513	596	-nan
43	2248513	597	-nan
43	2248513	598	-nan
43	2248513	599	-nan
43	2248513	600	-nan
43	2248513	601	-nan
43	2248513	602	-nan
43	2248513	603	-nan
43	2248513	604	-nan
43	2248513	605	-nan
43	2248513	606	-nan
43	2248513	607	-nan
43	2248513	608	-nan
43	2248513	609	-nan
43	2248513	610	-nan
43	2248513	611	-nan
43	2248513	612	-nan
43	2248513	613	-nan
43	2248513	614	-nan
43	2248513	615	-nan
43	2248513	616	-nan
43	2248513	617	-nan
43	2248513	618	-nan
43	2248513	619	-nan
43	2248513	620	-nan
43	2248513	621	-nan
43	2248513	622	-nan
43	2248513	623	-nan
43	2248513	624	-nan
43	2248513	625	-nan
43	2248513	626	-nan
43	2248513	627	-nan
43	2248513	628	-nan
43	2248513	629	-nan
43	2248513	630	-nan
43	2248513	631	-nan
43	2248513	632	-nan
43	2248513	633	-nan
43	2248513	634	-nan
43	2248513	635	-nan
43	2248513	636	-nan
43	2248513	637	-nan
43	2248513	638	-nan
43	2248513	639	-nan
43	2248513	640	-nan
43	2248513	641	-nan
43	2248513	642	-nan
43	2248513	643	-nan
43	2248513	644	-nan
43	2248513	645	-nan
43	2248513	646	-nan
43	2248513	647	-nan
43	2248513	648	-nan
43	2248513	649	-nan
43	2248513	650	-nan
43	2248513	651	-nan
43	2248513	652	-nan
43	2248513	653	-nan
43	2248513	654	-nan
43	2248513	655	-nan
43	2248513	656	-nan
43	2248513	657	-nan
43	2248513	658	-nan
43	2248513	659	-nan
43	2248513	660	-nan
43	2248513	661	-nan
43	2248513	662	-nan
43	2248513	663	-nan
43	2248513	664	-nan
43	2248513	665	-nan
43	2248513	666	-nan
43	2248513	667	-nan
43	2248513	668	-nan
43	2248513	669	-nan
43	2248513	670	-nan
43	2248513	671	-nan
43	2248513	672	-nan
43	2248513	673	-nan
43	2248513	674	-nan
43	2248513	675	-nan
43	2248513	676	-nan
43	2248513	677	-nan
43	2248513	678	-nan
43	2248513	679	-nan
43	2248513	680	-nan
43	2248513	681	-nan
43	2248513	682	-nan
43	2248513	683	-nan
43	2248513	684	-nan
43	2248513	685	-nan
43	2248513	686	-nan
43	2248513	687	-nan
43	2248513	688	-nan
43	2248513	689	-nan
43	2248513	690	-nan
43	2248513	691	-nan
43	2248513	692	-nan
43	2248513	693	-nan
43	2248513	694	-nan
43	2248513	695	-nan
43	2248513	696	-nan
43	2248513	697	-nan
43	2248513	698	-nan
43	2248513	699	-nan
43	2248513	700	-nan
43	2248513	701	-nan
43	2248513	702	-nan
43	2248513	703	-nan
43	2248513	704	-nan
43	2248513	705	-nan
43	2248513	706	-nan
43	2248513	707	-nan
43	2248513	708	-nan
43	2248513	709	-nan
43	2248513	710	-nan
43	2248513	711	-nan
43	2248513	712	-nan
43	2248513	713	-nan
43	2248513	714	-nan
43	2248513	715	-nan
43	2248513	716	-nan
43	2248513	717	-nan
43	2248513	718	-nan
43	2248513	719	-nan
43	2248513	720	-nan
43	2248513	721	-nan
43	2248513	722	-nan
43	2248513	723	-nan
43	2248513	724	-nan
43	2248513	725	-nan
43	2248513	726	-nan
43	2248513	727	-nan
43	2248513	728	-nan
43	2248513	729	-nan
43	2248513	730	-nan
43	2248513	731	-nan
43	2248513	732	-nan
43	2248513	733	-nan
43	2248513	734	-nan
43	2248513	735	-nan
43	2248513	736	-nan
43	2248513	737	-nan
43	2248513	738	-nan
43	2248513	739	-nan
43	2248513	740	-nan
43	2248513	741	-nan
43	2248513	742	-nan
43	2248513	743	-nan
43	2248513	744	-nan
43	2248513	745	-nan
43	2248513	746	-nan
43	2248513	747	-nan
43	2248513	748	-nan
43	2248513	749	-nan
43	2248513	750	-nan
vector 44  simple_scenario_cache_in_the_core_network.node[2].content_store  hit_node[2]  ETV
44	2248513	1	-nan
44	2248513	2	-nan
44	2248513	3	-nan
44	2248513	4	-nan
44	2248513	5	-nan
44	2248513	6	-nan
44	2248513	7	-nan
44	2248513	8	-nan
44	2248513	9	-nan
44	2248513	10	-nan
44	2248513	11	-nan
44	2248513	12	-nan
44	2248513	13	-nan
44	2248513	14	-nan
44	2248513	15	-nan
44	2248513	16	-nan
44	2248513	17	-nan
44	2248513	18	-nan
44	2248513	19	-nan
44	2248513	20	-nan
44	2248513	21	-nan
44	2248513	22	-nan
44	2248513	23	-nan
44	2248513	24	-nan
44	2248513	25	-nan
44	2248513	26	-nan
44	2248513	27	-nan
44	2248513	28	-nan
44	2248513	29	-nan
44	2248513	30	-nan
44	2248513	31	-nan
44	2248513	32	-nan
44	2248513	33	-nan
44	2248513	34	-nan
44	2248513	35	-nan
44	2248513	36	-nan
44	2248513	37	-nan
44	2248513	38	-nan
44	2248513	39	-nan
44	2248513	40	-nan
44	2248513	41	-nan
44	2248513	42	-nan
44	2248513	43	-nan
44	2248513	44	-nan
44	2248513	45	-nan
44	2248513	46	-nan
44	2248513	47	-nan
44	2248513	48	-nan
44	2248513	49	-nan
44	2248513	50	-nan
44	2248513	51	-nan
44	2248513	52	-nan
44	2248513	53	-nan
44	2248513	54	-nan
44	2248513	55	-nan
44	2248513	56	-nan
44	2248513	57	-nan
44	2248513	58	-nan
44	2248513	59	-nan
44	2248513	60	-nan
44	2248513	61	-nan
44	2248513	62	-nan
44	2248513	63	-nan
44	2248513	64	-nan
44	2248513	65	-nan
44	2248513	66	-nan
44	2248513	67	-nan
44	2248513	68	-nan
44	2248513	69	-nan