version 2
run General-3-20150311-18:59:35-28956
attr D fix0.1
attr F spr
attr R lru
attr a 0.5
attr configname General
attr datetime 20150311-18:59:35
attr experiment General
attr inifile omnetpp.ini
attr iterationvars "$net=abilene, $rep=0, $a=0.5, $F=spr, $ttl=1000, $D=fix0.1, $R=lru"
attr iterationvars2 "$net=abilene, $rep=0, $a=0.5, $F=spr, $ttl=1000, $D=fix0.1, $R=lru, $repetition=0"
attr measurement "$net=abilene, $rep=0, $a=0.5, $F=spr, $ttl=1000, $D=fix0.1, $R=lru"
attr net abilene
attr network networks.${net=abilene}_network
attr processid 28956
attr rep 0
attr repetition 0
attr replication #0
attr resultdir results
attr runnumber 3
attr seedset 0
attr ttl 1000

vector 0  abilene_network.node[0].content_store  hit_node[0]  ETV
0	604943	1	0
0	604943	2	0
0	604943	3	0
0	604943	4	1
0	604943	5	0.66666666666667
0	604943	6	0
0	604943	7	0.6
0	604943	8	0
0	604943	9	0
0	604943	10	0
0	604943	11	0
0	604943	12	0
0	604943	13	0
0	604943	14	0
0	604943	15	0
0	604943	16	0
0	604943	17	0
0	604943	18	0.5
0	604943	19	0
0	604943	20	0
0	604943	21	-nan
0	604943	22	0
0	604943	23	0
0	604943	24	0.33333333333333
0	604943	25	-nan
0	604943	26	0
0	604943	27	-nan
0	604943	28	0.66666666666667
0	604943	29	0
0	604943	30	0
0	604943	31	0
0	604943	32	0
0	604943	33	0
0	604943	34	-nan
0	604943	35	0
0	604943	36	0
0	604943	37	1
0	604943	38	-nan
0	604943	39	0
0	604943	40	0
0	604943	41	0
0	604943	42	0
0	604943	43	0
0	604943	44	0.33333333333333
0	604943	45	0
0	604943	46	0
0	604943	47	0
0	604943	48	0
0	604943	49	0.5
0	604943	50	-nan
0	604943	51	1
0	604943	52	0
0	604943	53	0
0	604943	54	-nan
0	604943	55	0
0	604943	56	0
0	604943	57	0
0	604943	58	-nan
0	604943	59	-nan
0	604943	60	0
0	604943	61	0
0	604943	62	0
0	604943	63	0
0	604943	64	-nan
0	604943	65	0
0	604943	66	-nan
0	604943	67	0
0	604943	68	0
0	604943	69	0
0	604943	70	-nan
0	604943	71	0
0	604943	72	0
0	604943	73	-nan
0	604943	74	0
0	604943	75	-nan
0	604943	76	-nan
0	604943	77	-nan
0	604943	78	0
0	604943	79	0
0	604943	80	0
0	604943	81	-nan
0	604943	82	0
0	604943	83	-nan
0	604943	84	0
0	604943	85	0
0	604943	86	-nan
0	604943	87	0
0	604943	88	0
0	604943	89	-nan
0	604943	90	-nan
0	604943	91	0
0	604943	92	0
0	604943	93	-nan
0	604943	94	0
0	604943	95	0
0	604943	96	0
0	604943	97	0
0	604943	98	0
0	604943	99	0.5
0	604943	100	-nan
0	604943	101	-nan
0	604943	102	0
0	604943	103	-nan
0	604943	104	-nan
0	604943	105	-nan
0	604943	106	-nan
0	604943	107	0
0	604943	108	-nan
0	604943	109	0
0	604943	110	-nan
0	604943	111	-nan
0	604943	112	-nan
0	604943	113	0
0	604943	114	0
0	604943	115	-nan
0	604943	116	0
0	604943	117	0
0	604943	118	0
0	604943	119	0
0	604943	120	-nan
0	604943	121	0
0	604943	122	0
0	604943	123	0
0	604943	124	0
0	604943	125	0
0	604943	126	-nan
0	604943	127	0
0	604943	128	0
0	604943	129	0
0	604943	130	-nan
0	604943	131	0
0	604943	132	0
0	604943	133	0
0	604943	134	0
0	604943	135	0
0	604943	136	0
0	604943	137	-nan
0	604943	138	-nan
0	604943	139	-nan
0	604943	140	0
0	604943	141	0
0	604943	142	0
0	604943	143	-nan
0	604943	144	0
0	604943	145	0
0	604943	146	0
0	604943	147	-nan
0	604943	148	-nan
0	604943	149	-nan
0	604943	150	0
0	604943	151	0
0	604943	152	-nan
0	604943	153	-nan
0	604943	154	0
0	604943	155	0
0	604943	156	-nan
0	604943	157	0
0	604943	158	-nan
0	604943	159	0
0	604943	160	-nan
0	604943	161	-nan
0	604943	162	1
0	604943	163	0
0	604943	164	-nan
0	604943	165	-nan
0	604943	166	0
0	604943	167	-nan
0	604943	168	-nan
0	604943	169	0
0	604943	170	-nan
0	604943	171	0
0	604943	172	-nan
0	604943	173	0
0	604943	174	0
0	604943	175	-nan
0	604943	176	0
0	604943	177	-nan
0	604943	178	0
0	604943	179	0
0	604943	180	-nan
0	604943	181	0
0	604943	182	0
0	604943	183	-nan
0	604943	184	-nan
0	604943	185	-nan
0	604943	186	-nan
0	604943	187	0
0	604943	188	-nan
0	604943	189	-nan
0	604943	190	-nan
0	604943	191	0
0	604943	192	-nan
0	604943	193	-nan
0	604943	194	0
0	604943	195	0
0	604943	196	0
0	604943	197	-nan
0	604943	198	0
0	604943	199	-nan
0	604943	200	-nan
0	604943	201	0
0	604943	202	-nan
0	604943	203	-nan
0	604943	204	0
0	604943	205	-nan
0	604943	206	0
0	604943	207	-nan
0	604943	208	0
0	604943	209	-nan
0	604943	210	-nan
0	604943	211	-nan
0	604943	212	-nan
0	604943	213	0
0	604943	214	-nan
0	604943	215	0
0	604943	216	0
0	604943	217	-nan
0	604943	218	0
0	604943	219	-nan
0	604943	220	-nan
0	604943	221	-nan
0	604943	222	0
0	604943	223	0
0	604943	224	-nan
0	604943	225	-nan
0	604943	226	-nan
0	604943	227	0
0	604943	228	0
0	604943	229	0
0	604943	230	0
0	604943	231	-nan
0	604943	232	-nan
0	604943	233	0
0	604943	234	0
0	604943	235	0
0	604943	236	-nan
0	604943	237	-nan
0	604943	238	-nan
0	604943	239	-nan
0	604943	240	-nan
0	604943	241	0.5
0	604943	242	-nan
0	604943	243	0
0	604943	244	0
0	604943	245	-nan
0	604943	246	-nan
0	604943	247	-nan
0	604943	248	0
0	604943	249	-nan
0	604943	250	-nan
0	604943	251	0
0	604943	252	0
0	604943	253	0
0	604943	254	-nan
0	604943	255	0
0	604943	256	-nan
0	604943	257	0
0	604943	258	0
0	604943	259	0
0	604943	260	0
0	604943	261	0
0	604943	262	-nan
0	604943	263	-nan
0	604943	264	0
0	604943	265	-nan
0	604943	266	-nan
0	604943	267	-nan
0	604943	268	-nan
0	604943	269	0
0	604943	270	0
0	604943	271	0
0	604943	272	-nan
0	604943	273	-nan
0	604943	274	0
0	604943	275	0
0	604943	276	-nan
0	604943	277	0
0	604943	278	0
0	604943	279	0
0	604943	280	-nan
0	604943	281	-nan
0	604943	282	-nan
0	604943	283	-nan
0	604943	284	-nan
0	604943	285	-nan
0	604943	286	-nan
0	604943	287	0
0	604943	288	0
0	604943	289	-nan
0	604943	290	0
0	604943	291	-nan
0	604943	292	0
0	604943	293	0
0	604943	294	-nan
0	604943	295	0
0	604943	296	-nan
0	604943	297	-nan
0	604943	298	0
0	604943	299	-nan
0	604943	300	0
0	604943	301	0
0	604943	302	-nan
0	604943	303	0
0	604943	304	-nan
0	604943	305	-nan
0	604943	306	0
0	604943	307	-nan
0	604943	308	-nan
0	604943	309	0
0	604943	310	-nan
0	604943	311	0
0	604943	312	0.66666666666667
0	604943	313	0
0	604943	314	-nan
0	604943	315	-nan
0	604943	316	0
0	604943	317	0
0	604943	318	0
0	604943	319	0.5
0	604943	320	-nan
0	604943	321	0
0	604943	322	0
0	604943	323	0
0	604943	324	-nan
0	604943	325	0
0	604943	326	0
0	604943	327	0
0	604943	328	0
0	604943	329	0
0	604943	330	-nan
0	604943	331	-nan
0	604943	332	0
0	604943	333	0
0	604943	334	-nan
0	604943	335	0
0	604943	336	0
0	604943	337	-nan
0	604943	338	-nan
0	604943	339	-nan
0	604943	340	0
0	604943	341	-nan
0	604943	342	-nan
0	604943	343	-nan
0	604943	344	-nan
0	604943	345	0
0	604943	346	0
0	604943	347	-nan
0	604943	348	-nan
0	604943	349	-nan
0	604943	350	-nan
0	604943	351	-nan
0	604943	352	-nan
0	604943	353	-nan
0	604943	354	-nan
0	604943	355	0
0	604943	356	-nan
0	604943	357	-nan
0	604943	358	0
0	604943	359	0
0	604943	360	-nan
0	604943	361	0
0	604943	362	0
0	604943	363	-nan
0	604943	364	-nan
0	604943	365	-nan
0	604943	366	-nan
0	604943	367	0
0	604943	368	-nan
0	604943	369	-nan
0	604943	370	-nan
0	604943	371	-nan
0	604943	372	-nan
0	604943	373	-nan
0	604943	374	-nan
0	604943	375	-nan
0	604943	376	0
0	604943	377	-nan
0	604943	378	-nan
0	604943	379	0
0	604943	380	-nan
0	604943	381	-nan
0	604943	382	-nan
0	604943	383	-nan
0	604943	384	0
0	604943	385	-nan
0	604943	386	0
0	604943	387	-nan
0	604943	388	0
0	604943	389	-nan
0	604943	390	0
0	604943	391	0
0	604943	392	0
0	604943	393	-nan
0	604943	394	-nan
0	604943	395	0
0	604943	396	-nan
0	604943	397	-nan
0	604943	398	0
0	604943	399	0
0	604943	400	0
0	604943	401	-nan
0	604943	402	-nan
0	604943	403	-nan
0	604943	404	-nan
0	604943	405	-nan
0	604943	406	-nan
0	604943	407	-nan
0	604943	408	-nan
0	604943	409	-nan
0	604943	410	-nan
0	604943	411	-nan
0	604943	412	-nan
0	604943	413	0
0	604943	414	0
0	604943	415	-nan
0	604943	416	-nan
0	604943	417	-nan
0	604943	418	-nan
0	604943	419	0
0	604943	420	-nan
0	604943	421	0.66666666666667
0	604943	422	-nan
0	604943	423	-nan
0	604943	424	-nan
0	604943	425	-nan
0	604943	426	-nan
0	604943	427	-nan
0	604943	428	-nan
0	604943	429	0
0	604943	430	-nan
0	604943	431	0
0	604943	432	0
0	604943	433	-nan
0	604943	434	0
0	604943	435	-nan
0	604943	436	0
0	604943	437	0
0	604943	438	0
0	604943	439	0
0	604943	440	0
0	604943	441	0
0	604943	442	-nan
0	604943	443	-nan
0	604943	444	-nan
0	604943	445	-nan
0	604943	446	0
0	604943	447	-nan
0	604943	448	0
0	604943	449	0
0	604943	450	0
0	604943	451	-nan
0	604943	452	-nan
0	604943	453	-nan
0	604943	454	0
0	604943	455	-nan
0	604943	456	-nan
0	604943	457	0
0	604943	458	0
0	604943	459	-nan
0	604943	460	0
0	604943	461	0
0	604943	462	-nan
0	604943	463	-nan
0	604943	464	-nan
0	604943	465	-nan
0	604943	466	-nan
0	604943	467	0
0	604943	468	0
0	604943	469	0
0	604943	470	-nan
0	604943	471	-nan
0	604943	472	-nan
0	604943	473	0
0	604943	474	-nan
0	604943	475	-nan
0	604943	476	0
0	604943	477	-nan
0	604943	478	-nan
0	604943	479	0
0	604943	480	0
0	604943	481	0
0	604943	482	0
0	604943	483	-nan
0	604943	484	0
0	604943	485	0
0	604943	486	-nan
0	604943	487	0
0	604943	488	-nan
0	604943	489	0
0	604943	490	-nan
0	604943	491	0
0	604943	492	0
0	604943	493	-nan
0	604943	494	-nan
0	604943	495	-nan
0	604943	496	-nan
0	604943	497	-nan
0	604943	498	-nan
0	604943	499	0
0	604943	500	-nan
0	604943	501	0
0	604943	502	-nan
0	604943	503	-nan
0	604943	504	-nan
0	604943	505	-nan
0	604943	506	0
0	604943	507	0
0	604943	508	-nan
0	604943	509	-nan
0	604943	510	-nan
0	604943	511	-nan
0	604943	512	-nan
0	604943	513	0
0	604943	514	0
0	604943	515	-nan
0	604943	516	-nan
0	604943	517	-nan
0	604943	518	-nan
0	604943	519	-nan
0	604943	520	0
0	604943	521	-nan
0	604943	522	0
0	604943	523	-nan
0	604943	524	-nan
0	604943	525	-nan
0	604943	526	-nan
0	604943	527	-nan
0	604943	528	-nan
0	604943	529	-nan
0	604943	530	0
0	604943	531	0
0	604943	532	-nan
0	604943	533	-nan
0	604943	534	-nan
0	604943	535	-nan
0	604943	536	-nan
0	604943	537	-nan
0	604943	538	-nan
0	604943	539	-nan
0	604943	540	0
0	604943	541	-nan
0	604943	542	-nan
0	604943	543	0
0	604943	544	-nan
0	604943	545	0
0	604943	546	0
0	604943	547	-nan
0	604943	548	0
0	604943	549	-nan
0	604943	550	0
0	604943	551	0
0	604943	552	-nan
0	604943	553	-nan
0	604943	554	0
0	604943	555	0
0	604943	556	-nan
0	604943	557	0
0	604943	558	-nan
0	604943	559	0
0	604943	560	0
0	604943	561	0
0	604943	562	-nan
0	604943	563	-nan
0	604943	564	-nan
0	604943	565	-nan
0	604943	566	0
0	604943	567	-nan
0	604943	568	-nan
0	604943	569	0
0	604943	570	-nan
0	604943	571	0
0	604943	572	0
0	604943	573	-nan
0	604943	574	0
0	604943	575	0
0	604943	576	-nan
0	604943	577	-nan
0	604943	578	-nan
0	604943	579	-nan
0	604943	580	-nan
0	604943	581	-nan
0	604943	582	0
0	604943	583	0
0	604943	584	-nan
0	604943	585	-nan
0	604943	586	-nan
0	604943	587	-nan
0	604943	588	-nan
0	604943	589	-nan
0	604943	590	-nan
0	604943	591	-nan
0	604943	592	0
0	604943	593	-nan
0	604943	594	0
0	604943	595	-nan
0	604943	596	-nan
0	604943	597	-nan
0	604943	598	0
0	604943	599	0
0	604943	600	-nan
0	604943	601	-nan
0	604943	602	-nan
0	604943	603	-nan
0	604943	604	-nan
0	604943	605	-nan
0	604943	606	-nan
0	604943	607	-nan
0	604943	608	-nan
0	604943	609	-nan
0	604943	610	0
0	604943	611	-nan
0	604943	612	-nan
0	604943	613	0
0	604943	614	0
0	604943	615	-nan
0	604943	616	-nan
0	604943	617	-nan
0	604943	618	-nan
0	604943	619	-nan
0	604943	620	-nan
0	604943	621	-nan
0	604943	622	-nan
0	604943	623	-nan
0	604943	624	-nan
0	604943	625	-nan
0	604943	626	0
0	604943	627	-nan
0	604943	628	0
0	604943	629	-nan
0	604943	630	-nan
0	604943	631	-nan
0	604943	632	-nan
0	604943	633	-nan
0	604943	634	-nan
0	604943	635	-nan
0	604943	636	-nan
0	604943	637	-nan
0	604943	638	-nan
0	604943	639	0
0	604943	640	-nan
0	604943	641	-nan
0	604943	642	-nan
0	604943	643	-nan
0	604943	644	-nan
0	604943	645	-nan
0	604943	646	0
0	604943	647	-nan
0	604943	648	-nan
0	604943	649	-nan
0	604943	650	-nan
0	604943	651	-nan
0	604943	652	-nan
0	604943	653	0
0	604943	654	-nan
0	604943	655	-nan
0	604943	656	-nan
0	604943	657	-nan
0	604943	658	-nan
0	604943	659	-nan
0	604943	660	-nan
0	604943	661	-nan
0	604943	662	-nan
0	604943	663	0
0	604943	664	-nan
0	604943	665	-nan
0	604943	666	-nan
0	604943	667	0
0	604943	668	0
0	604943	669	-nan
0	604943	670	-nan
0	604943	671	0
0	604943	672	-nan
0	604943	673	0
0	604943	674	-nan
0	604943	675	-nan
0	604943	676	0
0	604943	677	-nan
0	604943	678	-nan
0	604943	679	0
0	604943	680	0
0	604943	681	0
0	604943	682	-nan
0	604943	683	0
0	604943	684	-nan
0	604943	685	0
0	604943	686	-nan
0	604943	687	0
0	604943	688	0
0	604943	689	-nan
0	604943	690	-nan
0	604943	691	0
0	604943	692	-nan
0	604943	693	-nan
0	604943	694	-nan
0	604943	695	-nan
0	604943	696	-nan
0	604943	697	-nan
0	604943	698	-nan
0	604943	699	0
0	604943	700	-nan
0	604943	701	-nan
0	604943	702	-nan
0	604943	703	-nan
0	604943	704	-nan
0	604943	705	-nan
0	604943	706	0
0	604943	707	-nan
0	604943	708	-nan
0	604943	709	-nan
0	604943	710	-nan
0	604943	711	-nan
0	604943	712	-nan
0	604943	713	-nan
0	604943	714	-nan
0	604943	715	-nan
0	604943	716	-nan
0	604943	717	-nan
0	604943	718	-nan
0	604943	719	0
0	604943	720	0
0	604943	721	0
0	604943	722	0
0	604943	723	-nan
0	604943	724	-nan
0	604943	725	-nan
0	604943	726	0
0	604943	727	-nan
0	604943	728	-nan
0	604943	729	-nan
0	604943	730	-nan
0	604943	731	-nan
0	604943	732	-nan
0	604943	733	-nan
0	604943	734	0
0	604943	735	-nan
0	604943	736	0
0	604943	737	0
0	604943	738	-nan
0	604943	739	0
0	604943	740	0
0	604943	741	0
0	604943	742	-nan
0	604943	743	-nan
0	604943	744	-nan
0	604943	745	0.5
0	604943	746	0
0	604943	747	-nan
0	604943	748	-nan
0	604943	749	-nan
0	604943	750	1
0	604943	751	-nan
0	604943	752	-nan
0	604943	753	0
0	604943	754	-nan
0	604943	755	-nan
0	604943	756	0
0	604943	757	-nan
0	604943	758	-nan
0	604943	759	-nan
0	604943	760	-nan
0	604943	761	-nan
0	604943	762	-nan
0	604943	763	-nan
0	604943	764	-nan
0	604943	765	0
0	604943	766	-nan
0	604943	767	-nan
0	604943	768	-nan
0	604943	769	0
0	604943	770	0
0	604943	771	-nan
0	604943	772	-nan
0	604943	773	-nan
0	604943	774	0
0	604943	775	0
0	604943	776	-nan
0	604943	777	0
0	604943	778	0
0	604943	779	-nan
0	604943	780	0
0	604943	781	-nan
0	604943	782	-nan
0	604943	783	0
0	604943	784	-nan
0	604943	785	-nan
0	604943	786	-nan
0	604943	787	-nan
0	604943	788	-nan
0	604943	789	-nan
0	604943	790	0
0	604943	791	-nan
0	604943	792	-nan
0	604943	793	-nan
0	604943	794	0
0	604943	795	0
0	604943	796	0
0	604943	797	-nan
0	604943	798	-nan
0	604943	799	-nan
0	604943	800	-nan
0	604943	801	0
0	604943	802	-nan
0	604943	803	0
0	604943	804	0
0	604943	805	0
0	604943	806	0
0	604943	807	-nan
0	604943	808	-nan
0	604943	809	0
0	604943	810	-nan
0	604943	811	-nan
0	604943	812	0
0	604943	813	-nan
0	604943	814	-nan
0	604943	815	-nan
0	604943	816	0
0	604943	817	-nan
0	604943	818	0
0	604943	819	-nan
0	604943	820	-nan
0	604943	821	-nan
0	604943	822	0
0	604943	823	-nan
0	604943	824	-nan
0	604943	825	0
0	604943	826	-nan
0	604943	827	0.5
0	604943	828	-nan
0	604943	829	0
0	604943	830	0
0	604943	831	-nan
0	604943	832	-nan
0	604943	833	-nan
0	604943	834	-nan
0	604943	835	-nan
0	604943	836	-nan
0	604943	837	-nan
0	604943	838	-nan
0	604943	839	-nan
0	604943	840	-nan
0	604943	841	-nan
0	604943	842	0
0	604943	843	0
0	604943	844	0
0	604943	845	-nan
0	604943	846	-nan
0	604943	847	-nan
0	604943	848	0
0	604943	849	-nan
0	604943	850	-nan
0	604943	851	-nan
0	604943	852	-nan
0	604943	853	-nan
0	604943	854	-nan
0	604943	855	-nan
0	604943	856	-nan
0	604943	857	-nan
0	604943	858	-nan
0	604943	859	0
0	604943	860	-nan
0	604943	861	-nan
0	604943	862	-nan
0	604943	863	-nan
0	604943	864	-nan
0	604943	865	0
0	604943	866	-nan
0	604943	867	-nan
0	604943	868	0
0	604943	869	-nan
0	604943	870	-nan
0	604943	871	-nan
0	604943	872	0
0	604943	873	0
0	604943	874	-nan
0	604943	875	-nan
0	604943	876	-nan
0	604943	877	-nan
0	604943	878	0
0	604943	879	-nan
0	604943	880	0
0	604943	881	-nan
0	604943	882	-nan
0	604943	883	-nan
0	604943	884	0
0	604943	885	-nan
0	604943	886	-nan
0	604943	887	-nan
0	604943	888	-nan
0	604943	889	-nan
0	604943	890	-nan
0	604943	891	-nan
0	604943	892	-nan
0	604943	893	0.5
0	604943	894	-nan
0	604943	895	-nan
0	604943	896	-nan
0	604943	897	-nan
0	604943	898	-nan
0	604943	899	-nan
0	604943	900	-nan
0	604943	901	-nan
0	604943	902	-nan
0	604943	903	-nan
0	604943	904	-nan
0	604943	905	-nan
0	604943	906	0
0	604943	907	0
0	604943	908	0
0	604943	909	-nan
0	604943	910	0
0	604943	911	-nan
0	604943	912	-nan
0	604943	913	-nan
0	604943	914	-nan
0	604943	915	0
0	604943	916	-nan
0	604943	917	-nan
0	604943	918	0
0	604943	919	0
0	604943	920	-nan
0	604943	921	-nan
0	604943	922	-nan
0	604943	923	-nan
0	604943	924	-nan
0	604943	925	-nan
0	604943	926	-nan
0	604943	927	-nan
0	604943	928	-nan
0	604943	929	-nan
0	604943	930	-nan
0	604943	931	-nan
0	604943	932	0
0	604943	933	-nan
0	604943	934	0
0	604943	935	0
0	604943	936	-nan
0	604943	937	-nan
0	604943	938	0
0	604943	939	-nan
0	604943	940	-nan
0	604943	941	-nan
0	604943	942	-nan
0	604943	943	0
0	604943	944	-nan
0	604943	945	-nan
0	604943	946	0
0	604943	947	-nan
0	604943	948	-nan
0	604943	949	-nan
0	604943	950	-nan
0	604943	951	-nan
0	604943	952	-nan
0	604943	953	-nan
0	604943	954	-nan
0	604943	955	0
0	604943	956	-nan
0	604943	957	-nan
0	604943	958	-nan
0	604943	959	-nan
0	604943	960	-nan
0	604943	961	-nan
0	604943	962	0
0	604943	963	0
0	604943	964	-nan
0	604943	965	-nan
0	604943	966	-nan
0	604943	967	0
0	604943	968	0
0	604943	969	-nan
0	604943	970	-nan
0	604943	971	0
0	604943	972	-nan
0	604943	973	-nan
0	604943	974	-nan
0	604943	975	-nan
0	604943	976	-nan
0	604943	977	-nan
0	604943	978	-nan
0	604943	979	-nan
0	604943	980	0
0	604943	981	-nan
0	604943	982	-nan
0	604943	983	-nan
0	604943	984	0
0	604943	985	-nan
0	604943	986	-nan
0	604943	987	0
0	604943	988	-nan
0	604943	989	0
0	604943	990	0
0	604943	991	0
0	604943	992	0
0	604943	993	-nan
0	604943	994	-nan
0	604943	995	-nan
0	604943	996	-nan
0	604943	997	-nan
0	604943	998	-nan
0	604943	999	-nan
0	604943	1000	-nan
0	604943	1001	-nan
0	604943	1002	-nan
0	604943	1003	-nan
0	604943	1004	0
0	604943	1005	-nan
0	604943	1006	-nan
0	604943	1007	-nan
0	604943	1008	-nan
0	604943	1009	0
0	604943	1010	-nan
0	604943	1011	-nan
0	604943	1012	-nan
0	604943	1013	0
0	604943	1014	-nan
0	604943	1015	-nan
0	604943	1016	-nan
0	604943	1017	-nan
0	604943	1018	0
0	604943	1019	-nan
0	604943	1020	0
0	604943	1021	0
0	604943	1022	-nan
0	604943	1023	-nan
0	604943	1024	-nan
0	604943	1025	-nan
0	604943	1026	0
0	604943	1027	0
0	604943	1028	0
0	604943	1029	-nan
0	604943	1030	-nan
0	604943	1031	-nan
0	604943	1032	-nan
0	604943	1033	0
0	604943	1034	-nan
0	604943	1035	-nan
0	604943	1036	-nan
0	604943	1037	0
0	604943	1038	-nan
0	604943	1039	0
0	604943	1040	0
0	604943	1041	-nan
0	604943	1042	0
0	604943	1043	0
0	604943	1044	-nan
0	604943	1045	-nan
0	604943	1046	-nan
0	604943	1047	-nan
0	604943	1048	-nan
0	604943	1049	-nan
0	604943	1050	0
0	604943	1051	0
0	604943	1052	-nan
0	604943	1053	-nan
0	604943	1054	0
0	604943	1055	0
0	604943	1056	0
0	604943	1057	-nan
0	604943	1058	-nan
0	604943	1059	-nan
0	604943	1060	-nan
0	604943	1061	-nan
0	604943	1062	-nan
0	604943	1063	0
0	604943	1064	-nan
0	604943	1065	0
0	604943	1066	-nan
0	604943	1067	-nan
0	604943	1068	-nan
0	604943	1069	-nan
0	604943	1070	-nan
0	604943	1071	-nan
0	604943	1072	-nan
0	604943	1073	-nan
0	604943	1074	-nan
0	604943	1075	-nan
0	604943	1076	-nan
0	604943	1077	0
0	604943	1078	-nan
0	604943	1079	-nan
0	604943	1080	-nan
0	604943	1081	-nan
0	604943	1082	-nan
0	604943	1083	-nan
0	604943	1084	0
0	604943	1085	-nan
0	604943	1086	0
0	604943	1087	-nan
0	604943	1088	-nan
0	604943	1089	-nan
0	604943	1090	-nan
0	604943	1091	-nan
0	604943	1092	-nan
0	604943	1093	-nan
0	604943	1094	-nan
0	604943	1095	-nan
0	604943	1096	-nan
0	604943	1097	-nan
0	604943	1098	-nan
0	604943	1099	-nan
0	604943	1100	-nan
0	604943	1101	-nan
0	604943	1102	-nan
0	604943	1103	-nan
0	604943	1104	0
0	604943	1105	-nan
0	604943	1106	-nan
0	604943	1107	0
0	604943	1108	0
0	604943	1109	-nan
0	604943	1110	-nan
0	604943	1111	-nan
0	604943	1112	-nan
0	604943	1113	-nan
0	604943	1114	-nan
0	604943	1115	-nan
0	604943	1116	0
0	604943	1117	-nan
0	604943	1118	-nan
0	604943	1119	-nan
0	604943	1120	-nan
0	604943	1121	-nan
0	604943	1122	-nan
0	604943	1123	-nan
0	604943	1124	0
0	604943	1125	-nan
0	604943	1126	0
0	604943	1127	-nan
0	604943	1128	-nan
0	604943	1129	-nan
0	604943	1130	-nan
0	604943	1131	0
0	604943	1132	-nan
0	604943	1133	-nan
0	604943	1134	-nan
0	604943	1135	-nan
0	604943	1136	-nan
0	604943	1137	-nan
0	604943	1138	-nan
0	604943	1139	-nan
0	604943	1140	-nan
0	604943	1141	-nan
0	604943	1142	0
0	604943	1143	-nan
0	604943	1144	-nan
0	604943	1145	-nan
0	604943	1146	-nan
0	604943	1147	-nan
0	604943	1148	-nan
0	604943	1149	-nan
0	604943	1150	-nan
0	604943	1151	0
0	604943	1152	-nan
0	604943	1153	0
0	604943	1154	-nan
0	604943	1155	-nan
0	604943	1156	0
0	604943	1157	-nan
0	604943	1158	-nan
0	604943	1159	-nan
0	604943	1160	0
0	604943	1161	-nan
0	604943	1162	-nan
0	604943	1163	-nan
0	604943	1164	-nan
0	604943	1165	-nan
0	604943	1166	-nan
0	604943	1167	-nan
0	604943	1168	0
0	604943	1169	0
0	604943	1170	-nan
0	604943	1171	0
0	604943	1172	-nan
0	604943	1173	-nan
0	604943	1174	-nan
0	604943	1175	-nan
0	604943	1176	0
0	604943	1177	-nan
0	604943	1178	-nan
0	604943	1179	-nan
0	604943	1180	-nan
0	604943	1181	-nan
0	604943	1182	-nan
0	604943	1183	-nan
0	604943	1184	-nan
0	604943	1185	0
0	604943	1186	-nan
0	604943	1187	-nan
0	604943	1188	-nan
0	604943	1189	0
0	604943	1190	-nan
0	604943	1191	-nan
0	604943	1192	0
0	604943	1193	0
0	604943	1194	-nan
0	604943	1195	-nan
0	604943	1196	0
0	604943	1197	-nan
0	604943	1198	-nan
0	604943	1199	0
0	604943	1200	-nan
0	604943	1201	-nan
0	604943	1202	-nan
0	604943	1203	-nan
0	604943	1204	-nan
0	604943	1205	-nan
0	604943	1206	-nan
0	604943	1207	0
0	604943	1208	-nan
0	604943	1209	-nan
0	604943	1210	-nan
0	604943	1211	-nan
0	604943	1212	-nan
0	604943	1213	-nan
0	604943	1214	-nan
0	604943	1215	-nan
0	604943	1216	-nan
0	604943	1217	-nan
0	604943	1218	0
0	604943	1219	-nan
0	604943	1220	-nan
0	604943	1221	-nan
0	604943	1222	-nan
0	604943	1223	-nan
0	604943	1224	-nan
0	604943	1225	0
0	604943	1226	-nan
0	604943	1227	-nan
0	604943	1228	0
0	604943	1229	-nan
0	604943	1230	-nan
0	604943	1231	-nan
0	604943	1232	-nan
0	604943	1233	-nan
0	604943	1234	-nan
0	604943	1235	0
0	604943	1236	-nan
0	604943	1237	0
0	604943	1238	-nan
0	604943	1239	-nan
0	604943	1240	-nan
0	604943	1241	0
0	604943	1242	-nan
0	604943	1243	0
0	604943	1244	-nan
0	604943	1245	0
0	604943	1246	-nan
0	604943	1247	-nan
0	604943	1248	-nan
0	604943	1249	-nan
0	604943	1250	-nan
0	604943	1251	-nan
0	604943	1252	-nan
0	604943	1253	-nan
0	604943	1254	-nan
0	604943	1255	-nan
0	604943	1256	0
0	604943	1257	0
0	604943	1258	-nan
0	604943	1259	-nan
0	604943	1260	-nan
0	604943	1261	-nan
0	604943	1262	-nan
0	604943	1263	-nan
0	604943	1264	-nan
0	604943	1265	-nan
0	604943	1266	-nan
0	604943	1267	-nan
0	604943	1268	-nan
0	604943	1269	-nan
0	604943	1270	0
0	604943	1271	0
0	604943	1272	-nan
0	604943	1273	-nan
0	604943	1274	-nan
0	604943	1275	-nan
0	604943	1276	0
0	604943	1277	-nan
0	604943	1278	-nan
0	604943	1279	-nan
0	604943	1280	-nan
0	604943	1281	0
0	604943	1282	0
0	604943	1283	-nan
0	604943	1284	-nan
0	604943	1285	-nan
0	604943	1286	-nan
0	604943	1287	-nan
0	604943	1288	-nan
0	604943	1289	-nan
0	604943	1290	-nan
0	604943	1291	0
0	604943	1292	0
0	604943	1293	0
0	604943	1294	0
0	604943	1295	-nan
0	604943	1296	-nan
0	604943	1297	-nan
0	604943	1298	0
0	604943	1299	-nan
0	604943	1300	0
0	604943	1301	0
0	604943	1302	0
0	604943	1303	-nan
0	604943	1304	-nan
0	604943	1305	-nan
0	604943	1306	-nan
0	604943	1307	-nan
0	604943	1308	-nan
0	604943	1309	-nan
0	604943	1310	-nan
0	604943	1311	0
0	604943	1312	-nan
0	604943	1313	-nan
0	604943	1314	-nan
0	604943	1315	-nan
0	604943	1316	-nan
0	604943	1317	-nan
0	604943	1318	0
0	604943	1319	-nan
0	604943	1320	-nan
0	604943	1321	-nan
0	604943	1322	-nan
0	604943	1323	-nan
0	604943	1324	-nan
0	604943	1325	-nan
0	604943	1326	-nan
0	604943	1327	-nan
0	604943	1328	0
0	604943	1329	-nan
0	604943	1330	0
0	604943	1331	-nan
0	604943	1332	-nan
0	604943	1333	-nan
0	604943	1334	-nan
0	604943	1335	-nan
0	604943	1336	-nan
0	604943	1337	0
0	604943	1338	-nan
0	604943	1339	0
0	604943	1340	-nan
0	604943	1341	0
0	604943	1342	0
0	604943	1343	-nan
0	604943	1344	-nan
0	604943	1345	-nan
0	604943	1346	-nan
0	604943	1347	0
0	604943	1348	-nan
0	604943	1349	-nan
0	604943	1350	0
0	604943	1351	0
0	604943	1352	-nan
0	604943	1353	0
0	604943	1354	0
0	604943	1355	-nan
0	604943	1356	0
0	604943	1357	0
0	604943	1358	-nan
0	604943	1359	-nan
0	604943	1360	-nan
0	604943	1361	-nan
0	604943	1362	-nan
0	604943	1363	-nan
0	604943	1364	-nan
0	604943	1365	-nan
0	604943	1366	-nan
0	604943	1367	-nan
0	604943	1368	-nan
0	604943	1369	0
0	604943	1370	-nan
0	604943	1371	-nan
0	604943	1372	0
0	604943	1373	-nan
0	604943	1374	0
0	604943	1375	-nan
0	604943	1376	-nan
0	604943	1377	-nan
0	604943	1378	-nan
0	604943	1379	-nan
0	604943	1380	0
0	604943	1381	-nan
0	604943	1382	-nan
0	604943	1383	-nan
0	604943	1384	-nan
0	604943	1385	0
0	604943	1386	-nan
0	604943	1387	-nan
0	604943	1388	-nan
0	604943	1389	0
0	604943	1390	-nan
0	604943	1391	-nan
0	604943	1392	-nan
0	604943	1393	-nan
0	604943	1394	-nan
0	604943	1395	-nan
0	604943	1396	-nan
0	604943	1397	0
0	604943	1398	-nan
0	604943	1399	-nan
0	604943	1400	-nan
0	604943	1401	-nan
0	604943	1402	0
0	604943	1403	-nan
0	604943	1404	-nan
0	604943	1405	-nan
0	604943	1406	0
0	604943	1407	-nan
0	604943	1408	-nan
0	604943	1409	-nan
0	604943	1410	-nan
0	604943	1411	-nan
0	604943	1412	0
0	604943	1413	-nan
0	604943	1414	-nan
0	604943	1415	-nan
0	604943	1416	-nan
0	604943	1417	0
0	604943	1418	-nan
0	604943	1419	-nan
0	604943	1420	-nan
0	604943	1421	-nan
0	604943	1422	-nan
0	604943	1423	-nan
0	604943	1424	-nan
0	604943	1425	-nan
0	604943	1426	-nan
0	604943	1427	-nan
0	604943	1428	-nan
0	604943	1429	-nan
0	604943	1430	-nan
0	604943	1431	0
0	604943	1432	-nan
0	604943	1433	-nan
0	604943	1434	-nan
0	604943	1435	-nan
0	604943	1436	-nan
0	604943	1437	-nan
0	604943	1438	-nan
0	604943	1439	-nan
0	604943	1440	-nan
0	604943	1441	0
0	604943	1442	-nan
0	604943	1443	-nan
0	604943	1444	-nan
0	604943	1445	-nan
0	604943	1446	-nan
0	604943	1447	-nan
0	604943	1448	-nan
0	604943	1449	-nan
0	604943	1450	-nan
0	604943	1451	-nan
0	604943	1452	0
0	604943	1453	-nan
0	604943	1454	-nan
0	604943	1455	0
0	604943	1456	-nan
0	604943	1457	-nan
0	604943	1458	0
0	604943	1459	0
0	604943	1460	-nan
0	604943	1461	-nan
0	604943	1462	0
0	604943	1463	0
0	604943	1464	0
0	604943	1465	0
0	604943	1466	0
0	604943	1467	-nan
0	604943	1468	-nan
0	604943	1469	-nan
0	604943	1470	-nan
0	604943	1471	-nan
0	604943	1472	0
0	604943	1473	0
0	604943	1474	-nan
0	604943	1475	-nan
0	604943	1476	-nan
0	604943	1477	-nan
0	604943	1478	-nan
0	604943	1479	0
0	604943	1480	0
0	604943	1481	-nan
0	604943	1482	0
0	604943	1483	0
0	604943	1484	-nan
0	604943	1485	-nan
0	604943	1486	0
0	604943	1487	-nan
0	604943	1488	0
0	604943	1489	-nan
0	604943	1490	-nan
0	604943	1491	-nan
0	604943	1492	-nan
0	604943	1493	-nan
0	604943	1494	-nan
0	604943	1495	-nan
0	604943	1496	0
0	604943	1497	-nan
0	604943	1498	0.5
0	604943	1499	-nan
0	604943	1500	0
0	604943	1501	0
0	604943	1502	-nan
0	604943	1503	0
0	604943	1504	-nan
0	604943	1505	-nan
0	604943	1506	0
0	604943	1507	-nan
0	604943	1508	0
0	604943	1509	-nan
0	604943	1510	-nan
0	604943	1511	-nan
0	604943	1512	-nan
0	604943	1513	-nan
0	604943	1514	0
0	604943	1515	-nan
0	604943	1516	-nan
0	604943	1517	-nan
0	604943	1518	-nan
0	604943	1519	-nan
0	604943	1520	-nan
0	604943	1521	-nan
0	604943	1522	-nan
0	604943	1523	-nan
0	604943	1524	-nan
0	604943	1525	-nan
0	604943	1526	-nan
0	604943	1527	-nan
0	604943	1528	0
0	604943	1529	-nan
0	604943	1530	-nan
0	604943	1531	-nan
0	604943	1532	-nan
0	604943	1533	-nan
0	604943	1534	0
0	604943	1535	0
0	604943	1536	0
0	604943	1537	0
0	604943	1538	-nan
0	604943	1539	0
0	604943	1540	-nan
0	604943	1541	-nan
0	604943	1542	-nan
0	604943	1543	-nan
0	604943	1544	-nan
0	604943	1545	0
0	604943	1546	-nan
0	604943	1547	-nan
0	604943	1548	-nan
0	604943	1549	-nan
0	604943	1550	-nan
0	604943	1551	0
0	604943	1552	-nan
0	604943	1553	-nan
0	604943	1554	-nan
0	604943	1555	-nan
0	604943	1556	0
0	604943	1557	-nan
0	604943	1558	-nan
0	604943	1559	-nan
0	604943	1560	-nan
0	604943	1561	-nan
0	604943	1562	-nan
0	604943	1563	-nan
0	604943	1564	-nan
0	604943	1565	-nan
0	604943	1566	-nan
0	604943	1567	-nan
0	604943	1568	-nan
0	604943	1569	-nan
0	604943	1570	-nan
0	604943	1571	0
0	604943	1572	-nan
0	604943	1573	0
0	604943	1574	-nan
0	604943	1575	-nan
0	604943	1576	-nan
0	604943	1577	-nan
0	604943	1578	-nan
0	604943	1579	0.5
0	604943	1580	-nan
0	604943	1581	-nan
0	604943	1582	-nan
0	604943	1583	0
0	604943	1584	-nan
0	604943	1585	-nan
0	604943	1586	0
0	604943	1587	0
0	604943	1588	0
0	604943	1589	-nan
0	604943	1590	-nan
0	604943	1591	-nan
0	604943	1592	-nan
0	604943	1593	-nan
0	604943	1594	-nan
0	604943	1595	-nan
0	604943	1596	-nan
0	604943	1597	0
0	604943	1598	0
0	604943	1599	-nan
0	604943	1600	-nan
0	604943	1601	-nan
0	604943	1602	0
0	604943	1603	-nan
0	604943	1604	0
0	604943	1605	-nan
0	604943	1606	-nan
0	604943	1607	-nan
0	604943	1608	-nan
0	604943	1609	0
0	604943	1610	-nan
0	604943	1611	-nan
0	604943	1612	-nan
0	604943	1613	0
0	604943	1614	-nan
0	604943	1615	-nan
0	604943	1616	-nan
0	604943	1617	-nan
0	604943	1618	-nan
0	604943	1619	-nan
0	604943	1620	-nan
0	604943	1621	-nan
0	604943	1622	0
0	604943	1623	-nan
0	604943	1624	-nan
0	604943	1625	0
0	604943	1626	-nan
0	604943	1627	-nan
0	604943	1628	-nan
0	604943	1629	-nan
0	604943	1630	-nan
0	604943	1631	-nan
0	604943	1632	-nan
0	604943	1633	-nan
0	604943	1634	-nan
0	604943	1635	-nan
0	604943	1636	0
0	604943	1637	0
0	604943	1638	-nan
0	604943	1639	-nan
0	604943	1640	-nan
0	604943	1641	-nan
0	604943	1642	-nan
0	604943	1643	-nan
0	604943	1644	-nan
0	604943	1645	-nan
0	604943	1646	-nan
0	604943	1647	-nan
0	604943	1648	-nan
0	604943	1649	-nan
0	604943	1650	-nan
0	604943	1651	-nan
0	604943	1652	-nan
0	604943	1653	0
0	604943	1654	-nan
0	604943	1655	-nan
0	604943	1656	-nan
0	604943	1657	-nan
0	604943	1658	-nan
0	604943	1659	-nan
0	604943	1660	-nan
0	604943	1661	-nan
0	604943	1662	-nan
0	604943	1663	-nan
0	604943	1664	0
0	604943	1665	-nan
0	604943	1666	-nan
0	604943	1667	0
0	604943	1668	-nan
0	604943	1669	-nan
0	604943	1670	0
0	604943	1671	-nan
0	604943	1672	-nan
0	604943	1673	-nan
0	604943	1674	-nan
0	604943	1675	0
0	604943	1676	-nan
0	604943	1677	-nan
0	604943	1678	-nan
0	604943	1679	-nan