version 2
run General-19-20140101-23:37:30-24991
attr D lce
attr F spr
attr R lru
attr a 1
attr configname General
attr csize 10^5
attr datetime 20140101-23:37:30
attr experiment General
attr inifile omnetpp.ini
attr iterationvars "$net=simple_scenario_cache_at_border, $rep=0, $a=1, $F=spr, $ttl=1000, $D=lce, $R=lru, $csize=10^5"
attr iterationvars2 "$net=simple_scenario_cache_at_border, $rep=0, $a=1, $F=spr, $ttl=1000, $D=lce, $R=lru, $csize=10^5, $repetition=0"
attr measurement "$net=simple_scenario_cache_at_border, $rep=0, $a=1, $F=spr, $ttl=1000, $D=lce, $R=lru, $csize=10^5"
attr net simple_scenario_cache_at_border
attr network networks.${net=simple_scenario_cache_in_the_core,simple_scenario_cache_at_border}_network
attr processid 24991
attr rep 0
attr repetition 0
attr replication #0
attr resultdir results
attr runnumber 19
attr seedset 0
attr ttl 1000

vector 114  simple_scenario_cache_at_border_network.node[0].content_store  hit_node[0]  ETV
114	6918759	1	0
114	6918759	2	0
114	6918759	3	0
114	6918759	4	0
114	6918759	5	0
114	6918759	6	0
114	6918759	7	0
114	6918759	8	0
114	6918759	9	0
114	6918759	10	0
114	6918759	11	0
114	6918759	12	0
114	6918759	13	0
114	6918759	14	0
114	6918759	15	0
114	6918759	16	0
114	6918759	17	0
114	6918759	18	0
114	6918759	19	0
114	6918759	20	0
114	6918759	21	0
114	6918759	22	0
114	6918759	23	0
114	6918759	24	0
114	6918759	25	0
114	6918759	26	0
114	6918759	27	0
114	6918759	28	0
114	6918759	29	0
114	6918759	30	0
114	6918759	31	0
114	6918759	32	0
114	6918759	33	0
114	6918759	34	0
114	6918759	35	0
114	6918759	36	0
114	6918759	37	0
114	6918759	38	0
114	6918759	39	0
114	6918759	40	0
114	6918759	41	0
114	6918759	42	0
114	6918759	43	0
114	6918759	44	0
114	6918759	45	0
114	6918759	46	0
114	6918759	47	0
114	6918759	48	0
114	6918759	49	0
114	6918759	50	0
114	6918759	51	0
114	6918759	52	0
114	6918759	53	0
114	6918759	54	0
114	6918759	55	0
114	6918759	56	0
114	6918759	57	0
114	6918759	58	0
114	6918759	59	0
114	6918759	60	0
114	6918759	61	0
114	6918759	62	0
114	6918759	63	0
114	6918759	64	0
114	6918759	65	0
114	6918759	66	0
114	6918759	67	0
114	6918759	68	0
114	6918759	69	0
114	6918759	70	0
114	6918759	71	0
114	6918759	72	0
114	6918759	73	0
114	6918759	74	0
114	6918759	75	0
114	6918759	76	0
114	6918759	77	0
114	6918759	78	0
114	6918759	79	0
114	6918759	80	0
114	6918759	81	0
114	6918759	82	0
114	6918759	83	0
114	6918759	84	0
114	6918759	85	0
114	6918759	86	0
114	6918759	87	0
114	6918759	88	0
114	6918759	89	0
114	6918759	90	0
114	6918759	91	0
114	6918759	92	0
114	6918759	93	0
114	6918759	94	0
114	6918759	95	0
114	6918759	96	0
114	6918759	97	0
114	6918759	98	0
114	6918759	99	0
114	6918759	100	0
114	6918759	101	0
114	6918759	102	0
114	6918759	103	0
114	6918759	104	0
114	6918759	105	0
114	6918759	106	0
114	6918759	107	0
114	6918759	108	0
114	6918759	109	0
114	6918759	110	0
114	6918759	111	0
114	6918759	112	0
114	6918759	113	0
114	6918759	114	0
114	6918759	115	0
114	6918759	116	0
114	6918759	117	0
114	6918759	118	0
114	6918759	119	0
114	6918759	120	0
114	6918759	121	0
114	6918759	122	0
114	6918759	123	0
114	6918759	124	0
114	6918759	125	0
114	6918759	126	0
114	6918759	127	0
114	6918759	128	0
114	6918759	129	0
114	6918759	130	0
114	6918759	131	0
114	6918759	132	0
114	6918759	133	0
114	6918759	134	0
114	6918759	135	0
114	6918759	136	0
114	6918759	137	0
114	6918759	138	0
114	6918759	139	0
114	6918759	140	0
114	6918759	141	0
114	6918759	142	0
114	6918759	143	0
114	6918759	144	0
114	6918759	145	0
114	6918759	146	0
114	6918759	147	0
114	6918759	148	0
114	6918759	149	0
114	6918759	150	0
114	6918759	151	0
114	6918759	152	0
114	6918759	153	0
114	6918759	154	0
114	6918759	155	0
114	6918759	156	0
114	6918759	157	0
114	6918759	158	0
114	6918759	159	0
114	6918759	160	0
114	6918759	161	0
114	6918759	162	0
114	6918759	163	0
114	6918759	164	0
114	6918759	165	0
114	6918759	166	0
114	6918759	167	0
114	6918759	168	0
114	6918759	169	0
114	6918759	170	0
114	6918759	171	0
114	6918759	172	0
114	6918759	173	0
114	6918759	174	0
114	6918759	175	0
114	6918759	176	0
114	6918759	177	0
114	6918759	178	0
114	6918759	179	0
114	6918759	180	0
114	6918759	181	0
114	6918759	182	0
114	6918759	183	0
114	6918759	184	0
114	6918759	185	0
114	6918759	186	0
114	6918759	187	0
114	6918759	188	0
114	6918759	189	0
114	6918759	190	0
114	6918759	191	0
114	6918759	192	0
114	6918759	193	0
114	6918759	194	0
114	6918759	195	0
114	6918759	196	0
114	6918759	197	0
114	6918759	198	0
114	6918759	199	0
114	6918759	200	0
114	6918759	201	0
114	6918759	202	0
114	6918759	203	0
114	6918759	204	0
114	6918759	205	0
114	6918759	206	0
114	6918759	207	0
114	6918759	208	0
114	6918759	209	0
114	6918759	210	0
114	6918759	211	0
114	6918759	212	0
114	6918759	213	0
114	6918759	214	0
114	6918759	215	0
114	6918759	216	0
114	6918759	217	0
114	6918759	218	0
114	6918759	219	0
114	6918759	220	0
114	6918759	221	0
114	6918759	222	0
114	6918759	223	0
114	6918759	224	0
114	6918759	225	0
114	6918759	226	0
114	6918759	227	0
114	6918759	228	0
114	6918759	229	0
114	6918759	230	0
114	6918759	231	0
114	6918759	232	0
114	6918759	233	0
114	6918759	234	0
114	6918759	235	0
114	6918759	236	0
114	6918759	237	0
114	6918759	238	0
114	6918759	239	0
114	6918759	240	0
114	6918759	241	0
114	6918759	242	0
114	6918759	243	0
114	6918759	244	0
114	6918759	245	0
114	6918759	246	0
114	6918759	247	0
114	6918759	248	0
114	6918759	249	0
114	6918759	250	0
114	6918759	251	0
114	6918759	252	0
114	6918759	253	0
114	6918759	254	0
114	6918759	255	0
114	6918759	256	0
114	6918759	257	0
114	6918759	258	0
114	6918759	259	0
114	6918759	260	0
114	6918759	261	0
114	6918759	262	0
114	6918759	263	0
114	6918759	264	0
114	6918759	265	0
114	6918759	266	0
114	6918759	267	0
114	6918759	268	0
114	6918759	269	0
114	6918759	270	0
114	6918759	271	0
114	6918759	272	0
114	6918759	273	0
114	6918759	274	0
114	6918759	275	0
114	6918759	276	0
114	6918759	277	0
114	6918759	278	0
114	6918759	279	0
114	6918759	280	0
114	6918759	281	0
114	6918759	282	0
114	6918759	283	0
114	6918759	284	0
114	6918759	285	0
114	6918759	286	0
114	6918759	287	0
114	6918759	288	0
114	6918759	289	0
114	6918759	290	0
114	6918759	291	0
114	6918759	292	0
114	6918759	293	0
114	6918759	294	0
114	6918759	295	0
114	6918759	296	0
114	6918759	297	0
114	6918759	298	0
114	6918759	299	0
114	6918759	300	0
114	6918759	301	0
114	6918759	302	0
114	6918759	303	0
114	6918759	304	0
114	6918759	305	0
114	6918759	306	0
114	6918759	307	0
114	6918759	308	0
114	6918759	309	0
114	6918759	310	0
114	6918759	311	0
114	6918759	312	0
114	6918759	313	0
114	6918759	314	0
114	6918759	315	0
114	6918759	316	0
114	6918759	317	0
114	6918759	318	0
114	6918759	319	0
114	6918759	320	0
114	6918759	321	0
114	6918759	322	0
114	6918759	323	0
114	6918759	324	0
114	6918759	325	0
114	6918759	326	0
114	6918759	327	0
114	6918759	328	0
114	6918759	329	0
114	6918759	330	0
114	6918759	331	0
114	6918759	332	0
114	6918759	333	0
114	6918759	334	0
114	6918759	335	0
114	6918759	336	0
114	6918759	337	0
114	6918759	338	0
114	6918759	339	0
114	6918759	340	0
114	6918759	341	0
114	6918759	342	0
114	6918759	343	0
114	6918759	344	0
114	6918759	345	0
114	6918759	346	0
114	6918759	347	0
114	6918759	348	0
114	6918759	349	0
114	6918759	350	0
114	6918759	351	0
114	6918759	352	0
114	6918759	353	0
114	6918759	354	0
114	6918759	355	0
114	6918759	356	0
114	6918759	357	0
114	6918759	358	0
114	6918759	359	0
114	6918759	360	0
114	6918759	361	0
114	6918759	362	0
114	6918759	363	0
114	6918759	364	0
114	6918759	365	0
114	6918759	366	0
114	6918759	367	0
114	6918759	368	0
114	6918759	369	0
114	6918759	370	0
114	6918759	371	0
114	6918759	372	0
114	6918759	373	0
114	6918759	374	0
114	6918759	375	0
114	6918759	376	0
114	6918759	377	0
114	6918759	378	0
114	6918759	379	0
114	6918759	380	0
114	6918759	381	0
114	6918759	382	0
114	6918759	383	0
114	6918759	384	0
114	6918759	385	0
114	6918759	386	0
114	6918759	387	0
114	6918759	388	0
114	6918759	389	0
114	6918759	390	0
114	6918759	391	0
114	6918759	392	0
114	6918759	393	0
114	6918759	394	0
114	6918759	395	0
114	6918759	396	0
114	6918759	397	0
114	6918759	398	0
114	6918759	399	0
114	6918759	400	0
114	6918759	401	0
114	6918759	402	0
114	6918759	403	0
114	6918759	404	0
114	6918759	405	0
114	6918759	406	0
114	6918759	407	0
114	6918759	408	0
114	6918759	409	0
114	6918759	410	0
114	6918759	411	0
114	6918759	412	0
114	6918759	413	0
114	6918759	414	0
114	6918759	415	0
114	6918759	416	0
114	6918759	417	0
114	6918759	418	0
114	6918759	419	0
114	6918759	420	0
114	6918759	421	0
114	6918759	422	0
114	6918759	423	0
114	6918759	424	0
114	6918759	425	0
114	6918759	426	0
114	6918759	427	0
114	6918759	428	0
114	6918759	429	0
114	6918759	430	0
114	6918759	431	0
114	6918759	432	0
114	6918759	433	0
114	6918759	434	0
114	6918759	435	0
114	6918759	436	0
114	6918759	437	0
114	6918759	438	0
114	6918759	439	0
114	6918759	440	0
114	6918759	441	0
114	6918759	442	0
114	6918759	443	0
114	6918759	444	0
114	6918759	445	0
114	6918759	446	0
114	6918759	447	0
114	6918759	448	0
114	6918759	449	0
114	6918759	450	0
114	6918759	451	0
114	6918759	452	0
114	6918759	453	0
114	6918759	454	0
114	6918759	455	0
114	6918759	456	0
114	6918759	457	0
114	6918759	458	0
114	6918759	459	0
114	6918759	460	0
114	6918759	461	0
114	6918759	462	0
114	6918759	463	0
114	6918759	464	0
114	6918759	465	0
114	6918759	466	0
114	6918759	467	0
114	6918759	468	0
114	6918759	469	0
114	6918759	470	0
114	6918759	471	0
114	6918759	472	0
114	6918759	473	0
114	6918759	474	0
114	6918759	475	0
114	6918759	476	0
114	6918759	477	0
114	6918759	478	0
114	6918759	479	0
114	6918759	480	0
114	6918759	481	0
114	6918759	482	0
114	6918759	483	0
114	6918759	484	0
114	6918759	485	0
114	6918759	486	0
114	6918759	487	0
114	6918759	488	0
114	6918759	489	0
114	6918759	490	0
114	6918759	491	0
114	6918759	492	0
114	6918759	493	0
114	6918759	494	0
114	6918759	495	0
114	6918759	496	0
114	6918759	497	0
114	6918759	498	0
114	6918759	499	0
114	6918759	500	0
114	6918759	501	0
114	6918759	502	0
114	6918759	503	0
114	6918759	504	0
114	6918759	505	0
114	6918759	506	0
114	6918759	507	0
114	6918759	508	0
114	6918759	509	0
114	6918759	510	0
114	6918759	511	0
114	6918759	512	0
114	6918759	513	0
114	6918759	514	0
114	6918759	515	0
114	6918759	516	0
114	6918759	517	0
114	6918759	518	0
114	6918759	519	0
114	6918759	520	0
114	6918759	521	0
114	6918759	522	0
114	6918759	523	0
114	6918759	524	0
114	6918759	525	0
114	6918759	526	0
114	6918759	527	0
114	6918759	528	0
114	6918759	529	0
114	6918759	530	0
114	6918759	531	0
114	6918759	532	0
114	6918759	533	0
114	6918759	534	0
114	6918759	535	0
114	6918759	536	0
114	6918759	537	0
114	6918759	538	0
114	6918759	539	0
114	6918759	540	0
114	6918759	541	0
114	6918759	542	0
114	6918759	543	0
114	6918759	544	0
114	6918759	545	0
114	6918759	546	0
114	6918759	547	0
114	6918759	548	0
114	6918759	549	0
114	6918759	550	0
114	6918759	551	0
114	6918759	552	0
114	6918759	553	0
114	6918759	554	0
114	6918759	555	0
114	6918759	556	0
114	6918759	557	0
114	6918759	558	0
114	6918759	559	0
114	6918759	560	0
114	6918759	561	0
114	6918759	562	0
114	6918759	563	0
114	6918759	564	0
114	6918759	565	0
114	6918759	566	0
114	6918759	567	0
114	6918759	568	0
114	6918759	569	0
114	6918759	570	0
114	6918759	571	0
114	6918759	572	0
114	6918759	573	0
114	6918759	574	0
114	6918759	575	0
114	6918759	576	0
114	6918759	577	0
114	6918759	578	0
114	6918759	579	0
114	6918759	580	0
114	6918759	581	0
114	6918759	582	0
114	6918759	583	0
114	6918759	584	0
114	6918759	585	0
114	6918759	586	0
114	6918759	587	0
114	6918759	588	0
114	6918759	589	0
114	6918759	590	0
114	6918759	591	0
114	6918759	592	0
114	6918759	593	0
114	6918759	594	0
114	6918759	595	0
114	6918759	596	0
114	6918759	597	0
114	6918759	598	0
114	6918759	599	0
114	6918759	600	0
114	6918759	601	0
114	6918759	602	0
114	6918759	603	0
114	6918759	604	0
114	6918759	605	0
114	6918759	606	0
114	6918759	607	0
114	6918759	608	0
114	6918759	609	0
114	6918759	610	0
114	6918759	611	0
114	6918759	612	0
114	6918759	613	0
114	6918759	614	0
114	6918759	615	0
114	6918759	616	0
114	6918759	617	0
114	6918759	618	0
114	6918759	619	0
114	6918759	620	0
114	6918759	621	0
114	6918759	622	0
114	6918759	623	0
114	6918759	624	0
114	6918759	625	0
114	6918759	626	0
114	6918759	627	0
114	6918759	628	0
114	6918759	629	0
114	6918759	630	0
114	6918759	631	0
114	6918759	632	0
114	6918759	633	0
114	6918759	634	0
114	6918759	635	0
114	6918759	636	0
114	6918759	637	0
114	6918759	638	0
114	6918759	639	0
114	6918759	640	0
114	6918759	641	0
114	6918759	642	0
114	6918759	643	0
114	6918759	644	0
114	6918759	645	0
114	6918759	646	0
114	6918759	647	0
114	6918759	648	0
114	6918759	649	0
114	6918759	650	0
114	6918759	651	0
114	6918759	652	0
114	6918759	653	0
114	6918759	654	0
114	6918759	655	0
114	6918759	656	0
114	6918759	657	0
114	6918759	658	0
114	6918759	659	0
114	6918759	660	0
114	6918759	661	0
114	6918759	662	0
114	6918759	663	0
114	6918759	664	0
114	6918759	665	0
114	6918759	666	0
114	6918759	667	0
114	6918759	668	0
114	6918759	669	0
114	6918759	670	0
114	6918759	671	0
114	6918759	672	0
114	6918759	673	0
114	6918759	674	0
114	6918759	675	0
114	6918759	676	0
114	6918759	677	0
114	6918759	678	0
114	6918759	679	0
114	6918759	680	0
114	6918759	681	0
114	6918759	682	0
114	6918759	683	0
114	6918759	684	0
114	6918759	685	0
114	6918759	686	0
114	6918759	687	0
114	6918759	688	0
114	6918759	689	0
114	6918759	690	0
114	6918759	691	0
114	6918759	692	0
114	6918759	693	0
114	6918759	694	0
114	6918759	695	0
114	6918759	696	0
114	6918759	697	0
114	6918759	698	0
114	6918759	699	0
114	6918759	700	0
114	6918759	701	0
114	6918759	702	0
114	6918759	703	0
114	6918759	704	0
114	6918759	705	0
114	6918759	706	0
114	6918759	707	0
114	6918759	708	0
114	6918759	709	0
114	6918759	710	0
114	6918759	711	0
114	6918759	712	0
114	6918759	713	0
114	6918759	714	0
114	6918759	715	0
114	6918759	716	0
114	6918759	717	0
114	6918759	718	0
114	6918759	719	0
114	6918759	720	0
114	6918759	721	0
114	6918759	722	0
114	6918759	723	0
114	6918759	724	0
114	6918759	725	0
114	6918759	726	0
114	6918759	727	0
114	6918759	728	0
114	6918759	729	0
114	6918759	730	0
114	6918759	731	0
114	6918759	732	0
114	6918759	733	0
114	6918759	734	0
114	6918759	735	0
114	6918759	736	0
114	6918759	737	0
114	6918759	738	0
114	6918759	739	0
114	6918759	740	0
114	6918759	741	0
114	6918759	742	0
114	6918759	743	0
114	6918759	744	0
114	6918759	745	0
114	6918759	746	0
114	6918759	747	0
114	6918759	748	0
114	6918759	749	0
114	6918759	750	0
vector 115  simple_scenario_cache_at_border_network.node[1].content_store  hit_node[1]  ETV
115	6918759	1	1
115	6918759	2	-nan
115	6918759	3	-nan
115	6918759	4	1
115	6918759	5	-nan
115	6918759	6	-nan
115	6918759	7	-nan
115	6918759	8	-nan
115	6918759	9	-nan
115	6918759	10	-nan
115	6918759	11	-nan
115	6918759	12	1
115	6918759	13	1
115	6918759	14	-nan
115	6918759	15	1
115	6918759	16	1
115	6918759	17	1
115	6918759	18	1
115	6918759	19	1
115	6918759	20	-nan
115	6918759	21	1
115	6918759	22	-nan
115	6918759	23	-nan
115	6918759	24	1
115	6918759	25	1
115	6918759	26	-nan
115	6918759	27	-nan
115	6918759	28	-nan
115	6918759	29	-nan
115	6918759	30	1
115	6918759	31	-nan
115	6918759	32	1
115	6918759	33	-nan
115	6918759	34	1
115	6918759	35	-nan
115	6918759	36	-nan
115	6918759	37	1
115	6918759	38	-nan
115	6918759	39	-nan
115	6918759	40	1
115	6918759	41	1
115	6918759	42	-nan
115	6918759	43	1
115	6918759	44	-nan
115	6918759	45	-nan
115	6918759	46	-nan
115	6918759	47	-nan
115	6918759	48	-nan
115	6918759	49	1
115	6918759	50	-nan
115	6918759	51	1
115	6918759	52	-nan
115	6918759	53	-nan
115	6918759	54	-nan
115	6918759	55	-nan
115	6918759	56	1
115	6918759	57	-nan
115	6918759	58	1
115	6918759	59	1
115	6918759	60	-nan
115	6918759	61	-nan
115	6918759	62	1
115	6918759	63	-nan
115	6918759	64	1
115	6918759	65	-nan
115	6918759	66	1
115	6918759	67	1
115	6918759	68	1
115	6918759	69	1
115	6918759	70	1
115	6918759	71	-nan
115	6918759	72	-nan
115	6918759	73	1
115	6918759	74	1
115	6918759	75	1
115	6918759	76	-nan
115	6918759	77	-nan
115	6918759	78	1
115	6918759	79	-nan
115	6918759	80	1
115	6918759	81	1
115	6918759	82	-nan
115	6918759	83	1
115	6918759	84	-nan
115	6918759	85	-nan
115	6918759	86	-nan
115	6918759	87	-nan
115	6918759	88	-nan
115	6918759	89	-nan
115	6918759	90	1
115	6918759	91	-nan
115	6918759	92	-nan
115	6918759	93	1
115	6918759	94	1
115	6918759	95	-nan
115	6918759	96	1
115	6918759	97	1
115	6918759	98	-nan
115	6918759	99	-nan
115	6918759	100	1
115	6918759	101	-nan
115	6918759	102	1
115	6918759	103	1
115	6918759	104	-nan
115	6918759	105	1
115	6918759	106	1
115	6918759	107	1
115	6918759	108	-nan
115	6918759	109	-nan
115	6918759	110	1
115	6918759	111	-nan
115	6918759	112	1
115	6918759	113	1
115	6918759	114	1
115	6918759	115	1
115	6918759	116	1
115	6918759	117	-nan
115	6918759	118	1
115	6918759	119	-nan
115	6918759	120	1
115	6918759	121	-nan
115	6918759	122	-nan
115	6918759	123	-nan
115	6918759	124	-nan
115	6918759	125	-nan
115	6918759	126	1
115	6918759	127	-nan
115	6918759	128	-nan
115	6918759	129	-nan
115	6918759	130	-nan
115	6918759	131	1
115	6918759	132	-nan
115	6918759	133	-nan
115	6918759	134	1
115	6918759	135	1
115	6918759	136	-nan
115	6918759	137	1
115	6918759	138	1
115	6918759	139	1
115	6918759	140	1
115	6918759	141	-nan
115	6918759	142	-nan
115	6918759	143	1
115	6918759	144	1
115	6918759	145	-nan
115	6918759	146	1
115	6918759	147	-nan
115	6918759	148	-nan
115	6918759	149	-nan
115	6918759	150	-nan
115	6918759	151	1
115	6918759	152	1
115	6918759	153	1
115	6918759	154	-nan
115	6918759	155	1
115	6918759	156	-nan
115	6918759	157	-nan
115	6918759	158	-nan
115	6918759	159	1
115	6918759	160	-nan
115	6918759	161	1
115	6918759	162	1
115	6918759	163	-nan
115	6918759	164	1
115	6918759	165	-nan
115	6918759	166	-nan
115	6918759	167	1
115	6918759	168	1
115	6918759	169	-nan
115	6918759	170	1
115	6918759	171	-nan
115	6918759	172	1
115	6918759	173	-nan
115	6918759	174	1
115	6918759	175	-nan
115	6918759	176	1
115	6918759	177	-nan
115	6918759	178	1
115	6918759	179	1
115	6918759	180	1
115	6918759	181	-nan
115	6918759	182	1
115	6918759	183	-nan
115	6918759	184	1
115	6918759	185	-nan
115	6918759	186	1
115	6918759	187	1
115	6918759	188	1
115	6918759	189	1
115	6918759	190	1
115	6918759	191	-nan
115	6918759	192	1
115	6918759	193	1
115	6918759	194	-nan
115	6918759	195	1
115	6918759	196	1
115	6918759	197	1
115	6918759	198	-nan
115	6918759	199	1
115	6918759	200	1
115	6918759	201	-nan
115	6918759	202	1
115	6918759	203	-nan
115	6918759	204	1
115	6918759	205	1
115	6918759	206	-nan
115	6918759	207	-nan
115	6918759	208	1
115	6918759	209	1
115	6918759	210	1
115	6918759	211	-nan
115	6918759	212	-nan
115	6918759	213	1
115	6918759	214	1
115	6918759	215	1
115	6918759	216	1
115	6918759	217	1
115	6918759	218	-nan
115	6918759	219	1
115	6918759	220	-nan
115	6918759	221	1
115	6918759	222	1
115	6918759	223	1
115	6918759	224	-nan
115	6918759	225	-nan
115	6918759	226	-nan
115	6918759	227	1
115	6918759	228	1
115	6918759	229	-nan
115	6918759	230	-nan
115	6918759	231	-nan
115	6918759	232	-nan
115	6918759	233	1
115	6918759	234	1
115	6918759	235	1
115	6918759	236	-nan
115	6918759	237	-nan
115	6918759	238	1
115	6918759	239	-nan
115	6918759	240	1
115	6918759	241	1
115	6918759	242	-nan
115	6918759	243	1
115	6918759	244	-nan
115	6918759	245	-nan
115	6918759	246	-nan
115	6918759	247	-nan
115	6918759	248	1
115	6918759	249	1
115	6918759	250	1
115	6918759	251	-nan
115	6918759	252	-nan
115	6918759	253	-nan
115	6918759	254	1
115	6918759	255	-nan
115	6918759	256	-nan
115	6918759	257	-nan
115	6918759	258	-nan
115	6918759	259	1
115	6918759	260	1
115	6918759	261	-nan
115	6918759	262	-nan
115	6918759	263	1
115	6918759	264	1
115	6918759	265	1
115	6918759	266	-nan
115	6918759	267	-nan
115	6918759	268	1
115	6918759	269	-nan
115	6918759	270	-nan
115	6918759	271	-nan
115	6918759	272	-nan
115	6918759	273	-nan
115	6918759	274	1
115	6918759	275	1
115	6918759	276	1
115	6918759	277	-nan
115	6918759	278	1
115	6918759	279	-nan
115	6918759	280	1
115	6918759	281	-nan
115	6918759	282	-nan
115	6918759	283	1
115	6918759	284	1
115	6918759	285	1
115	6918759	286	-nan
115	6918759	287	1
115	6918759	288	1
115	6918759	289	-nan
115	6918759	290	-nan
115	6918759	291	-nan
115	6918759	292	-nan
115	6918759	293	1
115	6918759	294	-nan
115	6918759	295	1
115	6918759	296	1
115	6918759	297	1
115	6918759	298	1
115	6918759	299	-nan
115	6918759	300	-nan
115	6918759	301	-nan
115	6918759	302	1
115	6918759	303	-nan
115	6918759	304	1
115	6918759	305	1
115	6918759	306	-nan
115	6918759	307	-nan
115	6918759	308	-nan
115	6918759	309	-nan
115	6918759	310	-nan
115	6918759	311	-nan
115	6918759	312	1
115	6918759	313	1
115	6918759	314	-nan
115	6918759	315	-nan
115	6918759	316	-nan
115	6918759	317	-nan
115	6918759	318	-nan
115	6918759	319	-nan
115	6918759	320	-nan
115	6918759	321	-nan
115	6918759	322	-nan
115	6918759	323	-nan
115	6918759	324	1
115	6918759	325	1
115	6918759	326	1
115	6918759	327	1
115	6918759	328	-nan
115	6918759	329	-nan
115	6918759	330	-nan
115	6918759	331	1
115	6918759	332	-nan
115	6918759	333	-nan
115	6918759	334	-nan
115	6918759	335	-nan
115	6918759	336	-nan
115	6918759	337	-nan
115	6918759	338	-nan
115	6918759	339	1
115	6918759	340	1
115	6918759	341	1
115	6918759	342	1
115	6918759	343	-nan
115	6918759	344	-nan
115	6918759	345	1
115	6918759	346	-nan
115	6918759	347	1
115	6918759	348	1
115	6918759	349	-nan
115	6918759	350	1
115	6918759	351	-nan
115	6918759	352	1
115	6918759	353	-nan
115	6918759	354	1
115	6918759	355	1
115	6918759	356	1
115	6918759	357	1
115	6918759	358	-nan
115	6918759	359	-nan
115	6918759	360	-nan
115	6918759	361	1
115	6918759	362	-nan
115	6918759	363	1
115	6918759	364	-nan
115	6918759	365	1
115	6918759	366	1
115	6918759	367	1
115	6918759	368	1
115	6918759	369	-nan
115	6918759	370	-nan
115	6918759	371	-nan
115	6918759	372	1
115	6918759	373	-nan
115	6918759	374	1
115	6918759	375	1
115	6918759	376	-nan
115	6918759	377	-nan
115	6918759	378	-nan
115	6918759	379	1
115	6918759	380	-nan
115	6918759	381	-nan
115	6918759	382	1
115	6918759	383	-nan
115	6918759	384	1
115	6918759	385	-nan
115	6918759	386	-nan
115	6918759	387	1
115	6918759	388	1
115	6918759	389	-nan
115	6918759	390	-nan
115	6918759	391	1
115	6918759	392	-nan
115	6918759	393	-nan
115	6918759	394	-nan
115	6918759	395	-nan
115	6918759	396	-nan
115	6918759	397	-nan
115	6918759	398	1
115	6918759	399	1
115	6918759	400	-nan
115	6918759	401	1
115	6918759	402	-nan
115	6918759	403	1
115	6918759	404	1
115	6918759	405	-nan
115	6918759	406	-nan
115	6918759	407	-nan
115	6918759	408	-nan
115	6918759	409	-nan
115	6918759	410	1
115	6918759	411	-nan
115	6918759	412	-nan
115	6918759	413	-nan
115	6918759	414	1
115	6918759	415	1
115	6918759	416	-nan
115	6918759	417	-nan
115	6918759	418	1
115	6918759	419	-nan
115	6918759	420	-nan
115	6918759	421	-nan
115	6918759	422	1
115	6918759	423	1
115	6918759	424	1
115	6918759	425	-nan
115	6918759	426	1
115	6918759	427	1
115	6918759	428	1
115	6918759	429	1
115	6918759	430	1
115	6918759	431	1
115	6918759	432	-nan
115	6918759	433	-nan
115	6918759	434	-nan
115	6918759	435	1
115	6918759	436	1
115	6918759	437	-nan
115	6918759	438	-nan
115	6918759	439	-nan
115	6918759	440	1
115	6918759	441	-nan
115	6918759	442	1
115	6918759	443	-nan
115	6918759	444	1
115	6918759	445	-nan
115	6918759	446	-nan
115	6918759	447	-nan
115	6918759	448	1
115	6918759	449	-nan
115	6918759	450	1
115	6918759	451	1
115	6918759	452	-nan
115	6918759	453	1
115	6918759	454	-nan
115	6918759	455	1
115	6918759	456	1
115	6918759	457	-nan
115	6918759	458	1
115	6918759	459	1
115	6918759	460	1
115	6918759	461	1
115	6918759	462	1
115	6918759	463	1
115	6918759	464	1
115	6918759	465	1
115	6918759	466	1
115	6918759	467	-nan
115	6918759	468	1
115	6918759	469	-nan
115	6918759	470	-nan
115	6918759	471	1
115	6918759	472	-nan
115	6918759	473	-nan
115	6918759	474	-nan
115	6918759	475	1
115	6918759	476	1
115	6918759	477	-nan
115	6918759	478	-nan
115	6918759	479	-nan
115	6918759	480	-nan
115	6918759	481	1
115	6918759	482	-nan
115	6918759	483	1
115	6918759	484	-nan
115	6918759	485	1
115	6918759	486	1
115	6918759	487	1
115	6918759	488	1
115	6918759	489	-nan
115	6918759	490	-nan
115	6918759	491	-nan
115	6918759	492	-nan
115	6918759	493	-nan
115	6918759	494	1
115	6918759	495	-nan
115	6918759	496	1
115	6918759	497	-nan
115	6918759	498	1
115	6918759	499	-nan
115	6918759	500	1
115	6918759	501	-nan
115	6918759	502	-nan
115	6918759	503	1
115	6918759	504	1
115	6918759	505	1
115	6918759	506	-nan
115	6918759	507	-nan
115	6918759	508	-nan
115	6918759	509	1
115	6918759	510	1
115	6918759	511	-nan
115	6918759	512	1
115	6918759	513	1
115	6918759	514	-nan
115	6918759	515	1
115	6918759	516	1
115	6918759	517	1
115	6918759	518	-nan
115	6918759	519	1
115	6918759	520	-nan
115	6918759	521	1
115	6918759	522	-nan
115	6918759	523	1
115	6918759	524	-nan
115	6918759	525	-nan
115	6918759	526	1
115	6918759	527	1
115	6918759	528	-nan
115	6918759	529	1
115	6918759	530	-nan
115	6918759	531	1
115	6918759	532	-nan
115	6918759	533	1
115	6918759	534	1
115	6918759	535	1
115	6918759	536	1
115	6918759	537	-nan
115	6918759	538	-nan
115	6918759	539	1
115	6918759	540	-nan
115	6918759	541	1
115	6918759	542	-nan
115	6918759	543	-nan
115	6918759	544	1
115	6918759	545	-nan
115	6918759	546	1
115	6918759	547	1
115	6918759	548	1
115	6918759	549	1
115	6918759	550	1
115	6918759	551	-nan
115	6918759	552	-nan
115	6918759	553	1
115	6918759	554	1
115	6918759	555	1
115	6918759	556	1
115	6918759	557	-nan
115	6918759	558	-nan
115	6918759	559	1
115	6918759	560	1
115	6918759	561	-nan
115	6918759	562	1
115	6918759	563	-nan
115	6918759	564	-nan
115	6918759	565	-nan
115	6918759	566	-nan
115	6918759	567	-nan
115	6918759	568	-nan
115	6918759	569	-nan
115	6918759	570	-nan
115	6918759	571	-nan
115	6918759	572	-nan
115	6918759	573	-nan
115	6918759	574	1
115	6918759	575	1
115	6918759	576	-nan
115	6918759	577	-nan
115	6918759	578	-nan
115	6918759	579	-nan
115	6918759	580	1
115	6918759	581	1
115	6918759	582	-nan
115	6918759	583	1
115	6918759	584	1
115	6918759	585	-nan
115	6918759	586	1
115	6918759	587	-nan
115	6918759	588	1
115	6918759	589	-nan
115	6918759	590	1
115	6918759	591	1
115	6918759	592	-nan
115	6918759	593	1
115	6918759	594	1
115	6918759	595	1
115	6918759	596	1
115	6918759	597	1
115	6918759	598	-nan
115	6918759	599	1
115	6918759	600	-nan
115	6918759	601	1
115	6918759	602	1
115	6918759	603	-nan
115	6918759	604	-nan
115	6918759	605	-nan
115	6918759	606	-nan
115	6918759	607	1
115	6918759	608	1
115	6918759	609	-nan
115	6918759	610	1
115	6918759	611	-nan
115	6918759	612	-nan
115	6918759	613	-nan
115	6918759	614	-nan
115	6918759	615	1
115	6918759	616	1
115	6918759	617	-nan
115	6918759	618	1
115	6918759	619	1
115	6918759	620	-nan
115	6918759	621	-nan
115	6918759	622	-nan
115	6918759	623	1
115	6918759	624	1
115	6918759	625	1
115	6918759	626	-nan
115	6918759	627	-nan
115	6918759	628	1
115	6918759	629	-nan
115	6918759	630	1
115	6918759	631	1
115	6918759	632	1
115	6918759	633	-nan
115	6918759	634	-nan
115	6918759	635	1
115	6918759	636	-nan
115	6918759	637	1
115	6918759	638	-nan
115	6918759	639	1
115	6918759	640	1
115	6918759	641	-nan
115	6918759	642	1
115	6918759	643	1
115	6918759	644	1
115	6918759	645	1
115	6918759	646	1
115	6918759	647	-nan
115	6918759	648	-nan
115	6918759	649	-nan
115	6918759	650	-nan
115	6918759	651	-nan
115	6918759	652	-nan
115	6918759	653	-nan
115	6918759	654	-nan
115	6918759	655	1
115	6918759	656	1
115	6918759	657	1
115	6918759	658	1
115	6918759	659	-nan
115	6918759	660	-nan
115	6918759	661	-nan
115	6918759	662	-nan
115	6918759	663	1
115	6918759	664	-nan
115	6918759	665	1
115	6918759	666	1
115	6918759	667	-nan
115	6918759	668	-nan
115	6918759	669	-nan
115	6918759	670	1
115	6918759	671	-nan
115	6918759	672	-nan
115	6918759	673	-nan
115	6918759	674	1
115	6918759	675	-nan
115	6918759	676	-nan
115	6918759	677	-nan
115	6918759	678	-nan
115	6918759	679	-nan
115	6918759	680	1
115	6918759	681	1
115	6918759	682	-nan
115	6918759	683	1
115	6918759	684	1
115	6918759	685	1
115	6918759	686	-nan
115	6918759	687	1
115	6918759	688	-nan
115	6918759	689	1
115	6918759	690	-nan
115	6918759	691	1
115	6918759	692	-nan
115	6918759	693	-nan
115	6918759	694	1
115	6918759	695	-nan
115	6918759	696	1
115	6918759	697	1
115	6918759	698	1
115	6918759	699	-nan
115	6918759	700	1
115	6918759	701	-nan
115	6918759	702	1
115	6918759	703	-nan
115	6918759	704	-nan
115	6918759	705	1
115	6918759	706	-nan
115	6918759	707	-nan
115	6918759	708	1
115	6918759	709	-nan
115	6918759	710	-nan
115	6918759	711	-nan
115	6918759	712	-nan
115	6918759	713	-nan
115	6918759	714	1
115	6918759	715	1
115	6918759	716	-nan
115	6918759	717	-nan
115	6918759	718	-nan
115	6918759	719	-nan
115	6918759	720	1
115	6918759	721	-nan
115	6918759	722	1
115	6918759	723	1
115	6918759	724	-nan
115	6918759	725	1
115	6918759	726	-nan
115	6918759	727	1
115	6918759	728	-nan
115	6918759	729	-nan
115	6918759	730	1
115	6918759	731	-nan
115	6918759	732	-nan
115	6918759	733	1
115	6918759	734	-nan
115	6918759	735	1
115	6918759	736	1
115	6918759	737	1
115	6918759	738	1
115	6918759	739	-nan
115	6918759	740	1
115	6918759	741	1
115	6918759	742	-nan
115	6918759	743	1
115	6918759	744	1
115	6918759	745	1
115	6918759	746	-nan
115	6918759	747	1
115	6918759	748	-nan
115	6918759	749	1
115	6918759	750	1
vector 116  simple_scenario_cache_at_border_network.node[2].content_store  hit_node[2]  ETV
116	6918759	1	-nan
116	6918759	2	0
116	6918759	3	0
116	6918759	4	-nan
116	6918759	5	0
116	6918759	6	0
116	6918759	7	0
116	6918759	8	0
116	6918759	9	0
116	6918759	10	0
116	6918759	11	0
116	6918759	12	-nan
116	6918759	13	-nan
116	6918759	14	0
116	6918759	15	-nan
116	6918759	16	-nan
116	6918759	17	-nan
116	6918759	18	-nan
116	6918759	19	-nan
116	6918759	20	0
116	6918759	21	-nan
116	6918759	22	0
116	6918759	23	0
116	6918759	24	-nan
116	6918759	25	-nan
116	6918759	26	0
116	6918759	27	0
116	6918759	28	0
116	6918759	29	0
116	6918759	30	-nan
116	6918759	31	0
116	6918759	32	-nan
116	6918759	33	0
116	6918759	34	-nan
116	6918759	35	0
116	6918759	36	0
116	6918759	37	-nan
116	6918759	38	0
116	6918759	39	0
116	6918759	40	-nan
116	6918759	41	-nan
116	6918759	42	0
116	6918759	43	-nan
116	6918759	44	0
116	6918759	45	0
116	6918759	46	0
116	6918759	47	0
116	6918759	48	0
116	6918759	49	-nan
116	6918759	50	0