file 463844259 1397917447                                       
version 2
run General-7-20140419-16:22:30-7262
attr D fix0.1
attr F nrr
attr R lru
attr a 0.8
attr configname General
attr csize 10
attr ctlg 10^8
attr datetime 20140419-16:22:30
attr experiment General
attr inifile omnetpp.ini
attr iterationvars "$net=simple_scenario, $rep=1, $priceratiovalue=1, $a=0.8, $ctlg=10^8, $F=nrr, $ttl=1000, $D=fix0.1, $R=lru, $csize=10"
attr iterationvars2 "$net=simple_scenario, $rep=1, $priceratiovalue=1, $a=0.8, $ctlg=10^8, $F=nrr, $ttl=1000, $D=fix0.1, $R=lru, $csize=10, $repetition=0"
attr measurement "$net=simple_scenario, $rep=1, $priceratiovalue=1, $a=0.8, $ctlg=10^8, $F=nrr, $ttl=1000, $D=fix0.1, $R=lru, $csize=10"
attr net simple_scenario
attr network networks.${net=simple_scenario}_network
attr priceratiovalue 1
attr processid 7262
attr rep 1
attr repetition 0
attr replication #0
attr resultdir results
attr runnumber 7
attr seedset 1
attr ttl 1000

vector 0  simple_scenario_network.node[0].content_store  hit_node[0]  ETV
0	973 15139162 1316397 1316397 1 699051 699051 0 0.2 -nan -nan
0	15140135 15747168 1316397 1316397 699052 1398102 699051 0 0 -nan -nan
0	30887303 16058880 1316397 1316397 1398103 2097153 699051 0 0 -nan -nan
0	46946183 16062573 1316397 1316397 2097154 2796204 699051 0 0 -nan -nan
0	63008756 15926664 1316397 1316397 2796205 3489213 693009 0 0 -nan -nan
vector 1  simple_scenario_network.node[1].content_store  hit_node[1]  ETV
1	78935494 15203318 1316397 1316397 1 699051 699051 0 0.2 -nan -nan
1	94138812 15761961 1316397 1316397 699052 1398102 699051 0 0 -nan -nan
1	109900773 16068552 1316397 1316397 1398103 2097153 699051 0 0 -nan -nan
1	125969325 16070412 1316397 1316397 2097154 2796204 699051 0 0 -nan -nan
1	142039737 15932892 1316397 1316397 2796205 3489213 693009 0 0 -nan -nan
vector 2  simple_scenario_network.node[2].content_store  hit_node[2]  ETV
2	157972703 15204015 1316397 1316397 1 699051 699051 0 0.5 -nan -nan
2	173176718 15762432 1316397 1316397 699052 1398102 699051 0 0 -nan -nan
2	188939150 16068501 1316397 1316397 1398103 2097153 699051 0 0 -nan -nan
2	205007651 16070334 1316397 1316397 2097154 2796204 699051 0 0 -nan -nan
2	221077985 15932979 1316397 1316397 2796205 3489213 693009 0 0 -nan -nan
vector 3  simple_scenario_network.node[3].content_store  hit_node[3]  ETV
3	237011038 15203040 1316397 1316397 1 699051 699051 0 0 -nan -nan
3	252214078 15761961 1316397 1316397 699052 1398102 699051 0 0 -nan -nan
3	267976039 16068552 1316397 1316397 1398103 2097153 699051 0 0 -nan -nan
3	284044591 16070412 1316397 1316397 2097154 2796204 699051 0 0 -nan -nan
3	300115003 15932892 1316397 1316397 2796205 3489213 693009 0 0 -nan -nan
vector 4  simple_scenario_network.node[4].content_store  hit_node[4]  ETV
4	316047969 15203757 1316397 1316397 1 699051 699051 0 0 -nan -nan
4	331251726 15762432 1316397 1316397 699052 1398102 699051 0 0 -nan -nan
4	347014158 16068501 1316397 1316397 1398103 2097153 699051 0 0 -nan -nan
4	363082659 16070334 1316397 1316397 2097154 2796204 699051 0 0 -nan -nan
4	379152993 15932979 1316397 1316397 2796205 3489213 693009 0 0 -nan -nan
vector 5  simple_scenario_network.client[0]  hdistance[0]  ETV
5	395086035 13254099 1316397 1316397 1 699051 699051 0 3 129219.57879599 387608.5233531
5	408340134 13681129 1316397 1316397 699052 1398102 699051 0 3 30056.836517394 90170.019456658
5	422021263 13981479 1316397 1316397 1398103 2097153 699051 0 3 19292.928862996 57878.573331395
5	436002742 13981144 1316397 1316397 2097154 2796204 699051 0 3 15599.980864254 46799.885226243
5	449983886 13860373 1316397 1316397 2796205 3489213 693009 0 3 12542.969930854 37628.819649762
