version 2
run General-0-20140408-17:14:59-22544
attr D lce
attr F spr
attr R lru
attr a 0.8
attr configname General
attr csize 2
attr datetime 20140408-17:14:59
attr experiment General
attr inifile omnetpp.ini
attr iterationvars "$net=simple_scenario, $rep=0, $a=0.8, $F=spr, $ttl=1000, $D=lce, $R=lru, $csize=2"
attr iterationvars2 "$net=simple_scenario, $rep=0, $a=0.8, $F=spr, $ttl=1000, $D=lce, $R=lru, $csize=2, $repetition=0"
attr measurement "$net=simple_scenario, $rep=0, $a=0.8, $F=spr, $ttl=1000, $D=lce, $R=lru, $csize=2"
attr net simple_scenario
attr network networks.${net=simple_scenario}_network
attr processid 22544
attr rep 0
attr repetition 0
attr replication #0
attr resultdir results
attr runnumber 0
attr seedset 0
attr ttl 1000

vector 0  simple_scenario_network.node[0].content_store  hit_node[0]  ETV
0	43862	1	0.4
0	43862	2	0
0	43862	3	0
0	43862	4	-nan
0	43862	5	0
0	43862	6	0
0	43862	7	-nan
0	43862	8	0
0	43862	9	0
0	43862	10	0
0	43862	11	-nan
0	43862	12	-nan
0	43862	13	-nan
0	43862	14	0
0	43862	15	-nan
0	43862	16	-nan
0	43862	17	-nan
0	43862	18	-nan
0	43862	19	-nan
0	43862	20	0
0	43862	21	-nan
0	43862	22	0
0	43862	23	-nan
0	43862	24	-nan
0	43862	25	-nan
0	43862	26	-nan
0	43862	27	0
0	43862	28	-nan
0	43862	29	-nan
0	43862	30	-nan
0	43862	31	-nan
0	43862	32	-nan
0	43862	33	-nan
0	43862	34	0
0	43862	35	-nan
0	43862	36	-nan
0	43862	37	-nan
0	43862	38	-nan
0	43862	39	-nan
0	43862	40	-nan
0	43862	41	0
0	43862	42	-nan
0	43862	43	-nan
0	43862	44	0
0	43862	45	0
0	43862	46	-nan
0	43862	47	-nan
0	43862	48	-nan
0	43862	49	0
0	43862	50	-nan
0	43862	51	-nan
0	43862	52	-nan
0	43862	53	-nan
0	43862	54	-nan
0	43862	55	-nan
0	43862	56	-nan
0	43862	57	-nan
0	43862	58	-nan
0	43862	59	0
0	43862	60	-nan
0	43862	61	-nan
0	43862	62	0
0	43862	63	-nan
0	43862	64	-nan
0	43862	65	-nan
0	43862	66	-nan
0	43862	67	-nan
0	43862	68	-nan
0	43862	69	-nan
0	43862	70	-nan
0	43862	71	-nan
0	43862	72	-nan
0	43862	73	-nan
0	43862	74	-nan
0	43862	75	0
0	43862	76	-nan
0	43862	77	-nan
0	43862	78	-nan
0	43862	79	-nan
0	43862	80	-nan
0	43862	81	-nan
0	43862	82	-nan
0	43862	83	-nan
0	43862	84	-nan
0	43862	85	-nan
0	43862	86	-nan
0	43862	87	-nan
0	43862	88	-nan
0	43862	89	-nan
0	43862	90	-nan
0	43862	91	-nan
0	43862	92	-nan
0	43862	93	-nan
0	43862	94	-nan
0	43862	95	-nan
0	43862	96	-nan
0	43862	97	-nan
0	43862	98	0
0	43862	99	-nan
0	43862	100	0
0	43862	101	-nan
0	43862	102	0
0	43862	103	-nan
0	43862	104	-nan
0	43862	105	-nan
0	43862	106	-nan
0	43862	107	-nan
0	43862	108	-nan
0	43862	109	-nan
0	43862	110	-nan
0	43862	111	-nan
0	43862	112	-nan
0	43862	113	0
0	43862	114	-nan
0	43862	115	-nan
0	43862	116	-nan
0	43862	117	-nan
0	43862	118	-nan
0	43862	119	-nan
0	43862	120	-nan
0	43862	121	-nan
0	43862	122	-nan
0	43862	123	-nan
0	43862	124	-nan
0	43862	125	0
0	43862	126	-nan
0	43862	127	-nan
0	43862	128	-nan
0	43862	129	0
0	43862	130	-nan
0	43862	131	-nan
0	43862	132	-nan
0	43862	133	-nan
0	43862	134	-nan
0	43862	135	-nan
0	43862	136	-nan
0	43862	137	-nan
0	43862	138	-nan
0	43862	139	-nan
0	43862	140	-nan
0	43862	141	-nan
0	43862	142	-nan
0	43862	143	-nan
0	43862	144	-nan
0	43862	145	-nan
0	43862	146	-nan
0	43862	147	-nan
0	43862	148	-nan
0	43862	149	-nan
0	43862	150	0
0	43862	151	0
0	43862	152	-nan
0	43862	153	-nan
0	43862	154	-nan
0	43862	155	-nan
0	43862	156	-nan
0	43862	157	-nan
0	43862	158	-nan
0	43862	159	0
0	43862	160	-nan
0	43862	161	-nan
0	43862	162	-nan
0	43862	163	-nan
0	43862	164	-nan
0	43862	165	-nan
0	43862	166	-nan
0	43862	167	-nan
0	43862	168	-nan
0	43862	169	-nan
0	43862	170	-nan
0	43862	171	-nan
0	43862	172	-nan
0	43862	173	-nan
0	43862	174	-nan
0	43862	175	-nan
0	43862	176	-nan
0	43862	177	-nan
0	43862	178	0
0	43862	179	-nan
0	43862	180	-nan
0	43862	181	-nan
0	43862	182	-nan
0	43862	183	-nan
0	43862	184	-nan
0	43862	185	-nan
0	43862	186	-nan
0	43862	187	-nan
0	43862	188	-nan
0	43862	189	-nan
0	43862	190	-nan
0	43862	191	-nan
0	43862	192	-nan
0	43862	193	-nan
0	43862	194	-nan
0	43862	195	-nan
0	43862	196	-nan
0	43862	197	-nan
0	43862	198	-nan
0	43862	199	-nan
0	43862	200	-nan
0	43862	201	-nan
0	43862	202	-nan
0	43862	203	-nan
0	43862	204	-nan
0	43862	205	-nan
0	43862	206	-nan
0	43862	207	-nan
0	43862	208	-nan
0	43862	209	-nan
0	43862	210	-nan
0	43862	211	-nan
0	43862	212	-nan
0	43862	213	-nan
0	43862	214	-nan
0	43862	215	-nan
0	43862	216	-nan
0	43862	217	-nan
0	43862	218	-nan
0	43862	219	-nan
0	43862	220	-nan
0	43862	221	-nan
0	43862	222	-nan
0	43862	223	-nan
0	43862	224	-nan
0	43862	225	-nan
0	43862	226	-nan
0	43862	227	-nan
0	43862	228	-nan
0	43862	229	-nan
0	43862	230	-nan
0	43862	231	-nan
0	43862	232	-nan
0	43862	233	-nan
0	43862	234	-nan
0	43862	235	-nan
0	43862	236	-nan
0	43862	237	-nan
0	43862	238	0
0	43862	239	-nan
0	43862	240	-nan
0	43862	241	-nan
0	43862	242	-nan
0	43862	243	-nan
0	43862	244	-nan
0	43862	245	-nan
0	43862	246	-nan
0	43862	247	-nan
0	43862	248	-nan
0	43862	249	-nan
0	43862	250	-nan
0	43862	251	-nan
0	43862	252	-nan
0	43862	253	-nan
0	43862	254	-nan
0	43862	255	-nan
0	43862	256	-nan
0	43862	257	-nan
0	43862	258	-nan
0	43862	259	-nan
0	43862	260	-nan
0	43862	261	-nan
0	43862	262	-nan
0	43862	263	-nan
0	43862	264	-nan
0	43862	265	-nan
0	43862	266	-nan
0	43862	267	-nan
0	43862	268	-nan
0	43862	269	-nan
0	43862	270	-nan
0	43862	271	-nan
0	43862	272	-nan
0	43862	273	-nan
0	43862	274	-nan
0	43862	275	-nan
0	43862	276	-nan
0	43862	277	-nan
0	43862	278	-nan
0	43862	279	-nan
0	43862	280	-nan
0	43862	281	0
0	43862	282	-nan
0	43862	283	-nan
0	43862	284	-nan
0	43862	285	-nan
0	43862	286	-nan
0	43862	287	-nan
0	43862	288	-nan
0	43862	289	-nan
0	43862	290	-nan
0	43862	291	-nan
0	43862	292	-nan
0	43862	293	0
0	43862	294	-nan
0	43862	295	-nan
0	43862	296	-nan
0	43862	297	-nan
0	43862	298	-nan
0	43862	299	0
0	43862	300	-nan
0	43862	301	-nan
0	43862	302	-nan
0	43862	303	-nan
0	43862	304	-nan
0	43862	305	-nan
0	43862	306	-nan
0	43862	307	-nan
0	43862	308	-nan
0	43862	309	-nan
0	43862	310	-nan
0	43862	311	-nan
0	43862	312	-nan
0	43862	313	-nan
0	43862	314	-nan
0	43862	315	-nan
0	43862	316	-nan
0	43862	317	-nan
0	43862	318	-nan
0	43862	319	-nan
0	43862	320	-nan
0	43862	321	-nan
0	43862	322	-nan
0	43862	323	-nan
0	43862	324	-nan
0	43862	325	-nan
0	43862	326	-nan
0	43862	327	-nan
0	43862	328	-nan
0	43862	329	-nan
0	43862	330	-nan
0	43862	331	-nan
0	43862	332	-nan
0	43862	333	-nan
0	43862	334	-nan
0	43862	335	-nan
0	43862	336	-nan
0	43862	337	-nan
0	43862	338	-nan
0	43862	339	-nan
0	43862	340	-nan
0	43862	341	-nan
0	43862	342	-nan
0	43862	343	0
0	43862	344	-nan
0	43862	345	-nan
0	43862	346	-nan
0	43862	347	-nan
0	43862	348	-nan
0	43862	349	-nan
0	43862	350	-nan
0	43862	351	-nan
0	43862	352	-nan
0	43862	353	-nan
0	43862	354	0
0	43862	355	-nan
0	43862	356	-nan
0	43862	357	-nan
0	43862	358	-nan
0	43862	359	-nan
0	43862	360	-nan
0	43862	361	-nan
0	43862	362	-nan
0	43862	363	-nan
0	43862	364	-nan
0	43862	365	-nan
0	43862	366	-nan
0	43862	367	-nan
0	43862	368	-nan
0	43862	369	-nan
0	43862	370	-nan
0	43862	371	-nan
0	43862	372	-nan
0	43862	373	-nan
0	43862	374	-nan
0	43862	375	-nan
0	43862	376	-nan
0	43862	377	-nan
0	43862	378	-nan
0	43862	379	-nan
0	43862	380	-nan
0	43862	381	-nan
0	43862	382	-nan
0	43862	383	-nan
0	43862	384	-nan
0	43862	385	-nan
0	43862	386	-nan
0	43862	387	-nan
0	43862	388	-nan
0	43862	389	-nan
0	43862	390	-nan
0	43862	391	-nan
0	43862	392	-nan
0	43862	393	-nan
0	43862	394	-nan
0	43862	395	-nan
0	43862	396	-nan
0	43862	397	-nan
0	43862	398	-nan
0	43862	399	-nan
0	43862	400	-nan
0	43862	401	-nan
0	43862	402	0
0	43862	403	-nan
0	43862	404	-nan
0	43862	405	-nan
0	43862	406	-nan
0	43862	407	-nan
0	43862	408	-nan
0	43862	409	-nan
0	43862	410	-nan
0	43862	411	-nan
0	43862	412	-nan
0	43862	413	-nan
0	43862	414	-nan
0	43862	415	-nan
0	43862	416	-nan
0	43862	417	-nan
0	43862	418	-nan
0	43862	419	-nan
0	43862	420	0
0	43862	421	-nan
0	43862	422	-nan
0	43862	423	-nan
0	43862	424	-nan
0	43862	425	-nan
0	43862	426	-nan
0	43862	427	-nan
0	43862	428	-nan
0	43862	429	-nan
0	43862	430	-nan
0	43862	431	-nan
0	43862	432	-nan
0	43862	433	-nan
0	43862	434	-nan
0	43862	435	-nan
0	43862	436	-nan
0	43862	437	-nan
0	43862	438	-nan
0	43862	439	-nan
0	43862	440	-nan
0	43862	441	-nan
0	43862	442	-nan
0	43862	443	-nan
0	43862	444	-nan
0	43862	445	-nan
0	43862	446	-nan
0	43862	447	-nan
0	43862	448	-nan
0	43862	449	-nan
0	43862	450	-nan
0	43862	451	-nan
0	43862	452	-nan
0	43862	453	-nan
0	43862	454	-nan
0	43862	455	-nan
0	43862	456	-nan
0	43862	457	-nan
0	43862	458	-nan
0	43862	459	-nan
0	43862	460	-nan
0	43862	461	-nan
0	43862	462	-nan
0	43862	463	-nan
0	43862	464	-nan
0	43862	465	0
0	43862	466	-nan
0	43862	467	-nan
0	43862	468	-nan
0	43862	469	-nan
0	43862	470	-nan
0	43862	471	-nan
0	43862	472	-nan
0	43862	473	-nan
0	43862	474	-nan
0	43862	475	-nan
0	43862	476	-nan
0	43862	477	-nan
0	43862	478	-nan
0	43862	479	-nan
0	43862	480	-nan
0	43862	481	-nan
0	43862	482	-nan
0	43862	483	-nan
0	43862	484	-nan
0	43862	485	-nan
0	43862	486	-nan
0	43862	487	-nan
0	43862	488	-nan
0	43862	489	0
0	43862	490	-nan
0	43862	491	-nan
0	43862	492	-nan
0	43862	493	-nan
0	43862	494	-nan
0	43862	495	0
0	43862	496	-nan
0	43862	497	-nan
0	43862	498	-nan
0	43862	499	-nan
0	43862	500	-nan
0	43862	501	-nan
0	43862	502	-nan
0	43862	503	-nan
0	43862	504	-nan
0	43862	505	-nan
0	43862	506	-nan
0	43862	507	-nan
0	43862	508	0
0	43862	509	-nan
0	43862	510	-nan
0	43862	511	-nan
0	43862	512	-nan
0	43862	513	-nan
0	43862	514	-nan
0	43862	515	-nan
0	43862	516	-nan
0	43862	517	-nan
0	43862	518	-nan
0	43862	519	-nan
0	43862	520	-nan
0	43862	521	-nan
0	43862	522	-nan
0	43862	523	-nan
0	43862	524	-nan
0	43862	525	-nan
0	43862	526	-nan
0	43862	527	-nan
0	43862	528	-nan
0	43862	529	-nan
0	43862	530	-nan
0	43862	531	-nan
0	43862	532	-nan
0	43862	533	-nan
0	43862	534	-nan
0	43862	535	-nan
0	43862	536	-nan
0	43862	537	-nan
0	43862	538	-nan
0	43862	539	-nan
0	43862	540	-nan
0	43862	541	-nan
0	43862	542	-nan
0	43862	543	-nan
0	43862	544	-nan
0	43862	545	-nan
0	43862	546	-nan
0	43862	547	-nan
0	43862	548	-nan
0	43862	549	-nan
0	43862	550	-nan
0	43862	551	-nan
0	43862	552	-nan
0	43862	553	-nan
0	43862	554	-nan
0	43862	555	-nan
0	43862	556	-nan
0	43862	557	-nan
0	43862	558	-nan
0	43862	559	-nan
0	43862	560	-nan
0	43862	561	-nan
0	43862	562	-nan
0	43862	563	-nan
0	43862	564	-nan
0	43862	565	-nan
0	43862	566	-nan
0	43862	567	-nan
0	43862	568	-nan
0	43862	569	-nan
0	43862	570	-nan
0	43862	571	-nan
0	43862	572	-nan
0	43862	573	-nan
0	43862	574	-nan
0	43862	575	-nan
0	43862	576	-nan
0	43862	577	-nan
0	43862	578	-nan
0	43862	579	-nan
0	43862	580	-nan
0	43862	581	-nan
0	43862	582	-nan
0	43862	583	-nan
0	43862	584	-nan
0	43862	585	-nan
0	43862	586	-nan
0	43862	587	-nan
0	43862	588	-nan
0	43862	589	-nan
0	43862	590	-nan
0	43862	591	-nan
0	43862	592	0
0	43862	593	-nan
0	43862	594	-nan
0	43862	595	-nan
0	43862	596	-nan
0	43862	597	-nan
0	43862	598	-nan
0	43862	599	-nan
0	43862	600	-nan
0	43862	601	-nan
0	43862	602	-nan
0	43862	603	-nan
0	43862	604	-nan
vector 1  simple_scenario_network.node[1].content_store  hit_node[1]  ETV
1	43862	1	0
1	43862	2	-nan
1	43862	3	-nan
1	43862	4	-nan
1	43862	5	-nan
1	43862	6	-nan
1	43862	7	-nan
1	43862	8	-nan
1	43862	9	-nan
1	43862	10	-nan
1	43862	11	-nan
1	43862	12	-nan
1	43862	13	-nan
1	43862	14	-nan
1	43862	15	-nan
1	43862	16	-nan
1	43862	17	-nan
1	43862	18	-nan
1	43862	19	-nan
1	43862	20	-nan
1	43862	21	-nan
1	43862	22	-nan
1	43862	23	-nan
1	43862	24	-nan
1	43862	25	-nan
1	43862	26	-nan
1	43862	27	-nan
1	43862	28	-nan
1	43862	29	-nan
1	43862	30	-nan
1	43862	31	-nan
1	43862	32	-nan
1	43862	33	-nan
1	43862	34	0
1	43862	35	-nan
1	43862	36	-nan
1	43862	37	-nan
1	43862	38	-nan
1	43862	39	-nan
1	43862	40	-nan
1	43862	41	0
1	43862	42	-nan
1	43862	43	-nan
1	43862	44	-nan
1	43862	45	-nan
1	43862	46	-nan
1	43862	47	-nan
1	43862	48	-nan
1	43862	49	0
1	43862	50	-nan
1	43862	51	-nan
1	43862	52	-nan
1	43862	53	-nan
1	43862	54	-nan
1	43862	55	-nan
1	43862	56	-nan
1	43862	57	-nan
1	43862	58	-nan
1	43862	59	0
1	43862	60	-nan
1	43862	61	-nan
1	43862	62	0
1	43862	63	-nan
1	43862	64	-nan
1	43862	65	-nan
1	43862	66	-nan
1	43862	67	-nan
1	43862	68	-nan
1	43862	69	-nan
1	43862	70	-nan
1	43862	71	-nan
1	43862	72	-nan
1	43862	73	-nan
1	43862	74	-nan
1	43862	75	0
1	43862	76	-nan
1	43862	77	-nan
1	43862	78	-nan
1	43862	79	-nan
1	43862	80	-nan
1	43862	81	-nan
1	43862	82	-nan
1	43862	83	-nan
1	43862	84	-nan
1	43862	85	-nan
1	43862	86	-nan
1	43862	87	-nan
1	43862	88	-nan
1	43862	89	-nan
1	43862	90	-nan
1	43862	91	-nan
1	43862	92	-nan
1	43862	93	-nan
1	43862	94	-nan
1	43862	95	-nan
1	43862	96	-nan
1	43862	97	-nan
1	43862	98	-nan
1	43862	99	-nan
1	43862	100	0
1	43862	101	-nan
1	43862	102	0
1	43862	103	-nan
1	43862	104	-nan
1	43862	105	-nan
1	43862	106	-nan
1	43862	107	-nan
1	43862	108	-nan
1	43862	109	-nan
1	43862	110	-nan
1	43862	111	-nan
1	43862	112	-nan
1	43862	113	0
1	43862	114	-nan
1	43862	115	-nan
1	43862	116	-nan
1	43862	117	-nan
1	43862	118	-nan
1	43862	119	-nan
1	43862	120	-nan
1	43862	121	-nan
1	43862	122	-nan
1	43862	123	-nan
1	43862	124	-nan
1	43862	125	-nan
1	43862	126	-nan
1	43862	127	-nan
1	43862	128	-nan
1	43862	129	-nan
1	43862	130	-nan
1	43862	131	-nan
1	43862	132	-nan
1	43862	133	-nan
1	43862	134	-nan
1	43862	135	-nan
1	43862	136	-nan
1	43862	137	-nan
1	43862	138	-nan
1	43862	139	-nan
1	43862	140	-nan
1	43862	141	-nan
1	43862	142	-nan
1	43862	143	-nan
1	43862	144	-nan
1	43862	145	-nan
1	43862	146	-nan
1	43862	147	-nan
1	43862	148	-nan
1	43862	149	-nan
1	43862	150	-nan
1	43862	151	0
1	43862	152	-nan
1	43862	153	-nan
1	43862	154	-nan
1	43862	155	-nan
1	43862	156	-nan
1	43862	157	-nan
1	43862	158	-nan
1	43862	159	0
1	43862	160	-nan
1	43862	161	-nan
1	43862	162	-nan
1	43862	163	-nan
1	43862	164	-nan
1	43862	165	-nan
1	43862	166	-nan
1	43862	167	-nan
1	43862	168	-nan
1	43862	169	-nan
1	43862	170	-nan
1	43862	171	-nan
1	43862	172	-nan
1	43862	173	-nan
1	43862	174	-nan
1	43862	175	-nan
1	43862	176	-nan
1	43862	177	-nan
1	43862	178	0
1	43862	179	-nan
1	43862	180	-nan
1	43862	181	-nan
1	43862	182	-nan
1	43862	183	-nan
1	43862	184	-nan
1	43862	185	-nan
1	43862	186	-nan
1	43862	187	-nan
1	43862	188	-nan
1	43862	189	-nan
1	43862	190	-nan
1	43862	191	-nan
1	43862	192	-nan
1	43862	193	-nan
1	43862	194	-nan
1	43862	195	-nan
1	43862	196	-nan
1	43862	197	-nan
1	43862	198	-nan
1	43862	199	-nan
1	43862	200	-nan
1	43862	201	-nan
1	43862	202	-nan
1	43862	203	-nan
1	43862	204	-nan
1	43862	205	-nan
1	43862	206	-nan
1	43862	207	-nan
1	43862	208	-nan
1	43862	209	-nan
1	43862	210	-nan
1	43862	211	-nan
1	43862	212	-nan
1	43862	213	-nan
1	43862	214	-nan
1	43862	215	-nan
1	43862	216	-nan
1	43862	217	-nan
1	43862	218	-nan
1	43862	219	-nan
1	43862	220	-nan
1	43862	221	-nan
1	43862	222	-nan
1	43862	223	-nan
1	43862	224	-nan
1	43862	225	-nan
1	43862	226	-nan
1	43862	227	-nan
1	43862	228	-nan
1	43862	229	-nan
1	43862	230	-nan
1	43862	231	-nan
1	43862	232	-nan
1	43862	233	-nan
1	43862	234	-nan
1	43862	235	-nan
1	43862	236	-nan
1	43862	237	-nan
1	43862	238	0
1	43862	239	-nan
1	43862	240	-nan
1	43862	241	-nan
1	43862	242	-nan
1	43862	243	-nan
1	43862	244	-nan
1	43862	245	-nan
1	43862	246	-nan
1	43862	247	-nan
1	43862	248	-nan
1	43862	249	-nan
1	43862	250	-nan
1	43862	251	-nan
1	43862	252	-nan
1	43862	253	-nan
1	43862	254	-nan
1	43862	255	-nan
1	43862	256	-nan
1	43862	257	-nan
1	43862	258	-nan
1	43862	259	-nan
1	43862	260	-nan
1	43862	261	-nan
1	43862	262	-nan
1	43862	263	-nan
1	43862	264	-nan
1	43862	265	-nan
1	43862	266	-nan
1	43862	267	-nan
1	43862	268	-nan
1	43862	269	-nan
1	43862	270	-nan
1	43862	271	-nan
1	43862	272	-nan
1	43862	273	-nan
1	43862	274	-nan
1	43862	275	-nan
1	43862	276	-nan
1	43862	277	-nan
1	43862	278	-nan
1	43862	279	-nan
1	43862	280	-nan
1	43862	281	-nan
1	43862	282	-nan
1	43862	283	-nan
1	43862	284	-nan
1	43862	285	-nan
1	43862	286	-nan
1	43862	287	-nan
1	43862	288	-nan
1	43862	289	-nan
1	43862	290	-nan
1	43862	291	-nan
1	43862	292	-nan
1	43862	293	0
1	43862	294	-nan
1	43862	295	-nan
1	43862	296	-nan
1	43862	297	-nan
1	43862	298	-nan
1	43862	299	-nan
1	43862	300	-nan
1	43862	301	-nan
1	43862	302	-nan
1	43862	303	-nan
1	43862	304	-nan
1	43862	305	-nan
1	43862	306	-nan
1	43862	307	-nan
1	43862	308	-nan
1	43862	309	-nan
1	43862	310	-nan
1	43862	311	-nan
1	43862	312	-nan
1	43862	313	-nan
1	43862	314	-nan
1	43862	315	-nan
1	43862	316	-nan
1	43862	317	-nan
1	43862	318	-nan
1	43862	319	-nan
1	43862	320	-nan
1	43862	321	-nan
1	43862	322	-nan
1	43862	323	-nan
1	43862	324	-nan
1	43862	325	-nan
1	43862	326	-nan
1	43862	327	-nan
1	43862	328	-nan
1	43862	329	-nan
1	43862	330	-nan
1	43862	331	-nan
1	43862	332	-nan
1	43862	333	-nan
1	43862	334	-nan
1	43862	335	-nan
1	43862	336	-nan
1	43862	337	-nan
1	43862	338	-nan
1	43862	339	-nan
1	43862	340	-nan
1	43862	341	-nan
1	43862	342	-nan
1	43862	343	-nan
1	43862	344	-nan
1	43862	345	-nan
1	43862	346	-nan
1	43862	347	-nan
1	43862	348	-nan
1	43862	349	-nan
1	43862	350	-nan
1	43862	351	-nan
1	43862	352	-nan
1	43862	353	-nan
1	43862	354	0
1	43862	355	-nan
1	43862	356	-nan
1	43862	357	-nan
1	43862	358	-nan
1	43862	359	-nan
1	43862	360	-nan
1	43862	361	-nan
1	43862	362	-nan
1	43862	363	-nan
1	43862	364	-nan
1	43862	365	-nan
1	43862	366	-nan
1	43862	367	-nan
1	43862	368	-nan
1	43862	369	-nan
1	43862	370	-nan
1	43862	371	-nan
1	43862	372	-nan
1	43862	373	-nan
1	43862	374	-nan
1	43862	375	-nan
1	43862	376	-nan
1	43862	377	-nan
1	43862	378	-nan
1	43862	379	-nan
1	43862	380	-nan
1	43862	381	-nan
1	43862	382	-nan
1	43862	383	-nan
1	43862	384	-nan
1	43862	385	-nan
1	43862	386	-nan
1	43862	387	-nan
1	43862	388	-nan
1	43862	389	-nan
1	43862	390	-nan
1	43862	391	-nan
1	43862	392	-nan
1	43862	393	-nan
1	43862	394	-nan
1	43862	395	-nan
1	43862	396	-nan
1	43862	397	-nan
1	43862	398	-nan
1	43862	399	-nan
1	43862	400	-nan
1	43862	401	-nan
1	43862	402	-nan
1	43862	403	-nan
1	43862	404	-nan
1	43862	405	-nan
1	43862	406	-nan
1	43862	407	-nan
1	43862	408	-nan
1	43862	409	-nan
1	43862	410	-nan
1	43862	411	-nan
1	43862	412	-nan
1	43862	413	-nan
1	43862	414	-nan
1	43862	415	-nan
1	43862	416	-nan
1	43862	417	-nan
1	43862	418	-nan
1	43862	419	-nan
1	43862	420	-nan
1	43862	421	-nan
1	43862	422	-nan
1	43862	423	-nan
1	43862	424	-nan
1	43862	425	-nan
1	43862	426	-nan
1	43862	427	-nan
1	43862	428	-nan
1	43862	429	-nan
1	43862	430	-nan
1	43862	431	-nan
1	43862	432	-nan
1	43862	433	-nan
1	43862	434	-nan
1	43862	435	-nan
1	43862	436	-nan
1	43862	437	-nan
1	43862	438	-nan
1	43862	439	-nan
1	43862	440	-nan
1	43862	441	-nan
1	43862	442	-nan
1	43862	443	-nan
1	43862	444	-nan
1	43862	445	-nan
1	43862	446	-nan
1	43862	447	-nan
1	43862	448	-nan
1	43862	449	-nan
1	43862	450	-nan
1	43862	451	-nan
1	43862	452	-nan
1	43862	453	-nan
1	43862	454	-nan
1	43862	455	-nan
1	43862	456	-nan
1	43862	457	-nan
1	43862	458	-nan
1	43862	459	-nan
1	43862	460	-nan
1	43862	461	-nan
1	43862	462	-nan
1	43862	463	-nan
1	43862	464	-nan
1	43862	465	0
1	43862	466	-nan
1	43862	467	-nan
1	43862	468	-nan
1	43862	469	-nan
1	43862	470	-nan
1	43862	471	-nan
1	43862	472	-nan
1	43862	473	-nan
1	43862	474	-nan
1	43862	475	-nan
1	43862	476	-nan
1	43862	477	-nan
1	43862	478	-nan
1	43862	479	-nan
1	43862	480	-nan
1	43862	481	-nan
1	43862	482	-nan
1	43862	483	-nan
1	43862	484	-nan
1	43862	485	-nan
1	43862	486	-nan
1	43862	487	-nan
1	43862	488	-nan
1	43862	489	-nan
1	43862	490	-nan
1	43862	491	-nan
1	43862	492	-nan
1	43862	493	-nan
1	43862	494	-nan
1	43862	495	-nan
1	43862	496	-nan
1	43862	497	-nan
1	43862	498	-nan
1	43862	499	-nan
1	43862	500	-nan
1	43862	501	-nan
1	43862	502	-nan
1	43862	503	-nan
1	43862	504	-nan
1	43862	505	-nan
1	43862	506	-nan
1	43862	507	-nan
1	43862	508	-nan
1	43862	509	-nan
1	43862	510	-nan
1	43862	511	-nan
1	43862	512	-nan
1	43862	513	-nan
1	43862	514	-nan
1	43862	515	-nan
1	43862	516	-nan
1	43862	517	-nan
1	43862	518	-nan
1	43862	519	-nan
1	43862	520	-nan
1	43862	521	-nan
1	43862	522	-nan
1	43862	523	-nan
1	43862	524	-nan
1	43862	525	-nan
1	43862	526	-nan
1	43862	527	-nan
1	43862	528	-nan
1	43862	529	-nan
1	43862	530	-nan
1	43862	531	-nan
1	43862	532	-nan
1	43862	533	-nan
1	43862	534	-nan
1	43862	535	-nan
1	43862	536	-nan
1	43862	537	-nan
1	43862	538	-nan
1	43862	539	-nan
1	43862	540	-nan
1	43862	541	-nan
1	43862	542	-nan
1	43862	543	-nan
1	43862	544	-nan
1	43862	545	-nan
1	43862	546	-nan
1	43862	547	-nan
1	43862	548	-nan
1	43862	549	-nan
1	43862	550	-nan
1	43862	551	-nan
1	43862	552	-nan
1	43862	553	-nan
1	43862	554	-nan
1	43862	555	-nan
1	43862	556	-nan
1	43862	557	-nan
1	43862	558	-nan
1	43862	559	-nan
1	43862	560	-nan
1	43862	561	-nan
1	43862	562	-nan
1	43862	563	-nan
1	43862	564	-nan
1	43862	565	-nan
1	43862	566	-nan
1	43862	567	-nan
1	43862	568	-nan
1	43862	569	-nan
1	43862	570	-nan
1	43862	571	-nan
1	43862	572	-nan
1	43862	573	-nan
1	43862	574	-nan
1	43862	575	-nan
1	43862	576	-nan
1	43862	577	-nan
1	43862	578	-nan
1	43862	579	-nan
1	43862	580	-nan
1	43862	581	-nan
1	43862	582	-nan
1	43862	583	-nan
1	43862	584	-nan
1	43862	585	-nan
1	43862	586	-nan
1	43862	587	-nan
1	43862	588	-nan
1	43862	589	-nan
1	43862	590	-nan
1	43862	591	-nan
1	43862	592	-nan
1	43862	593	-nan
1	43862	594	-nan
1	43862	595	-nan
1	43862	596	-nan
1	43862	597	-nan
1	43862	598	-nan
1	43862	599	-nan
1	43862	600	-nan
1	43862	601	-nan
1	43862	602	-nan
1	43862	603	-nan
1	43862	604	-nan
vector 2  simple_scenario_network.node[2].content_store  hit_node[2]  ETV
2	43862	1	-nan
2	43862	2	0.33333333333333
2	43862	3	0
2	43862	4	-nan
2	43862	5	0
2	43862	6	0
2	43862	7	-nan
2	43862	8	0
2	43862	9	0
2	43862	10	0
2	43862	11	-nan
2	43862	12	-nan
2	43862	13	-nan
2	43862	14	0
2	43862	15	-nan
2	43862	16	-nan
2	43862	17	-nan
2	43862	18	-nan
2	43862	19	-nan
2	43862	20	0
2	43862	21	-nan
2	43862	22	0
2	43862	23	-nan
2	43862	24	-nan
2	43862	25	-nan
2	43862	26	-nan
2	43862	27	0
2	43862	28	-nan
2	43862	29	-nan
2	43862	30	-nan
2	43862	31	-nan
2	43862	32	-nan
2	43862	33	-nan
2	43862	34	-nan
2	43862	35	-nan
2	43862	36	-nan
2	43862	37	-nan
2	43862	38	-nan
2	43862	39	-nan
2	43862	40	-nan
2	43862	41	-nan
2	43862	42	-nan
2	43862	43	-nan
2	43862	44	0
2	43862	45	0
2	43862	46	-nan
2	43862	47	-nan
2	43862	48	-nan
2	43862	49	-nan
2	43862	50	-nan
2	43862	51	-nan
2	43862	52	-nan
2	43862	53	-nan
2	43862	54	-nan
2	43862	55	-nan
2	43862	56	-nan
2	43862	57	-nan
2	43862	58	-nan
2	43862	59	-nan
2	43862	60	-nan
2	43862	61	-nan
2	43862	62	-nan
2	43862	63	-nan
2	43862	64	-nan
2	43862	65	-nan
2	43862	66	-nan
2	43862	67	-nan
2	43862	68	-nan
2	43862	69	-nan
2	43862	70	-nan
2	43862	71	-nan
2	43862	72	-nan
2	43862	73	-nan
2	43862	74	-nan
2	43862	75	-nan
2	43862	76	-nan
2	43862	77	-nan
2	43862	78	-nan
2	43862	79	-nan
2	43862	80	-nan
2	43862	81	-nan
2	43862	82	-nan
2	43862	83	-nan
2	43862	84	-nan
2	43862	85	-nan
2	43862	86	-nan
2	43862	87	-nan
2	43862	88	-nan
2	43862	89	-nan
2	43862	90	-nan
2	43862	91	-nan
2	43862	92	-nan
2	43862	93	-nan
2	43862	94	-nan
2	43862	95	-nan
2	43862	96	-nan
2	43862	97	-nan
2	43862	98	0
2	43862	99	-nan
2	43862	100	-nan
2	43862	101	-nan
2	43862	102	-nan
2	43862	103	-nan
2	43862	104	-nan
2	43862	105	-nan
2	43862	106	-nan
2	43862	107	-nan
2	43862	108	-nan
2	43862	109	-nan
2	43862	110	-nan
2	43862	111	-nan
2	43862	112	-nan
2	43862	113	-nan
2	43862	114	-nan
2	43862	115	-nan
2	43862	116	-nan
2	43862	117	-nan
2	43862	118	-nan
2	43862	119	-nan
2	43862	120	-nan
2	43862	121	-nan
2	43862	122	-nan
2	43862	123	-nan
2	43862	124	-nan
2	43862	125	0
2	43862	126	-nan
2	43862	127	-nan
2	43862	128	-nan
2	43862	129	0
2	43862	130	-nan
2	43862	131	-nan
2	43862	132	-nan
2	43862	133	-nan
2	43862	134	-nan
2	43862	135	-nan
2	43862	136	-nan
2	43862	137	-nan
2	43862	138	-nan
2	43862	139	-nan
2	43862	140	-nan
2	43862	141	-nan
2	43862	142	-nan
2	43862	143	-nan
2	43862	144	-nan
2	43862	145	-nan
2	43862	146	-nan
2	43862	147	-nan
2	43862	148	-nan
2	43862	149	-nan
2	43862	150	0
2	43862	151	-nan
2	43862	152	-nan
2	43862	153	-nan
2	43862	154	-nan
2	43862	155	-nan
2	43862	156	-nan
2	43862	157	-nan
2	43862	158	-nan
2	43862	159	-nan
2	43862	160	-nan
2	43862	161	-nan
2	43862	162	-nan
2	43862	163	-nan
2	43862	164	-nan
2	43862	165	-nan
2	43862	166	-nan
2	43862	167	-nan
2	43862	168	-nan
2	43862	169	-nan
2	43862	170	-nan
2	43862	171	-nan
2	43862	172	-nan
2	43862	173	-nan
2	43862	174	-nan
2	43862	175	-nan
2	43862	176	-nan
2	43862	177	-nan
2	43862	178	-nan
2	43862	179	-nan
2	43862	180	-nan
2	43862	181	-nan
2	43862	182	-nan
2	43862	183	-nan
2	43862	184	-nan
2	43862	185	-nan
2	43862	186	-nan
2	43862	187	-nan
2	43862	188	-nan
2	43862	189	-nan
2	43862	190	-nan
2	43862	191	-nan
2	43862	192	-nan
2	43862	193	-nan
2	43862	194	-nan
2	43862	195	-nan
2	43862	196	-nan
2	43862	197	-nan
2	43862	198	-nan
2	43862	199	-nan
2	43862	200	-nan
2	43862	201	-nan
2	43862	202	-nan
2	43862	203	-nan
2	43862	204	-nan
2	43862	205	-nan
2	43862	206	-nan
2	43862	207	-nan
2	43862	208	-nan
2	43862	209	-nan
2	43862	210	-nan
2	43862	211	-nan
2	43862	212	-nan
2	43862	213	-nan
2	43862	214	-nan
2	43862	215	-nan
2	43862	216	-nan
2	43862	217	-nan
2	43862	218	-nan
2	43862	219	-nan
2	43862	220	-nan
2	43862	221	-nan
2	43862	222	-nan
2	43862	223	-nan
2	43862	224	-nan
2	43862	225	-nan
2	43862	226	-nan
2	43862	227	-nan
2	43862	228	-nan
2	43862	229	-nan
2	43862	230	-nan
2	43862	231	-nan
2	43862	232	-nan
2	43862	233	-nan
2	43862	234	-nan
2	43862	235	-nan
2	43862	236	-nan
2	43862	237	-nan
2	43862	238	-nan
2	43862	239	-nan
2	43862	240	-nan
2	43862	241	-nan
2	43862	242	-nan
2	43862	243	-nan
2	43862	244	-nan
2	43862	245	-nan
2	43862	246	-nan
2	43862	247	-nan
2	43862	248	-nan
2	43862	249	-nan
2	43862	250	-nan
2	43862	251	-nan
2	43862	252	-nan
2	43862	253	-nan
2	43862	254	-nan
2	43862	255	-nan
2	43862	256	-nan
2	43862	257	-nan
2	43862	258	-nan
2	43862	259	-nan
2	43862	260	-nan
2	43862	261	-nan
2	43862	262	-nan
2	43862	263	-nan
2	43862	264	-nan
2	43862	265	-nan
2	43862	266	-nan
2	43862	267	-nan
2	43862	268	-nan
2	43862	269	-nan
2	43862	270	-nan
2	43862	271	-nan
2	43862	272	-nan
2	43862	273	-nan
2	43862	274	-nan
2	43862	275	-nan
2	43862	276	-nan
2	43862	277	-nan
2	43862	278	-nan
2	43862	279	-nan
2	43862	280	-nan
2	43862	281	0
2	43862	282	-nan
2	43862	283	-nan
2	43862	284	-nan
2	43862	285	-nan
2	43862	286	-nan
2	43862	287	-nan
2	43862	288	-nan
2	43862	289	-nan
2	43862	290	-nan
2	43862	291	-nan
2	43862	292	-nan
2	43862	293	-nan
2	43862	294	-nan
2	43862	295	-nan
2	43862	296	-nan
2	43862	297	-nan
2	43862	298	-nan
2	43862	299	0
2	43862	300	-nan
2	43862	301	-nan
2	43862	302	-nan
2	43862	303	-nan
2	43862	304	-nan
2	43862	305	-nan
2	43862	306	-nan
2	43862	307	-nan
2	43862	308	-nan
2	43862	309	-nan
2	43862	310	-nan
2	43862	311	-nan
2	43862	312	-nan
2	43862	313	-nan
2	43862	314	-nan
2	43862	315	-nan
2	43862	316	-nan
2	43862	317	-nan
2	43862	318	-nan
2	43862	319	-nan
2	43862	320	-nan
2	43862	321	-nan
2	43862	322	-nan
2	43862	323	-nan
2	43862	324	-nan
2	43862	325	-nan
2	43862	326	-nan
2	43862	327	-nan
2	43862	328	-nan
2	43862	329	-nan
2	43862	330	-nan
2	43862	331	-nan
2	43862	332	-nan
2	43862	333	-nan
2	43862	334	-nan
2	43862	335	-nan
2	43862	336	-nan
2	43862	337	-nan
2	43862	338	-nan
2	43862	339	-nan
2	43862	340	-nan
2	43862	341	-nan
2	43862	342	-nan
2	43862	343	0
2	43862	344	-nan
2	43862	345	-nan
2	43862	346	-nan
2	43862	347	-nan
2	43862	348	-nan
2	43862	349	-nan
2	43862	350	-nan
2	43862	351	-nan
2	43862	352	-nan
2	43862	353	-nan
2	43862	354	-nan
2	43862	355	-nan
2	43862	356	-nan
2	43862	357	-nan
2	43862	358	-nan
2	43862	359	-nan
2	43862	360	-nan
2	43862	361	-nan
2	43862	362	-nan
2	43862	363	-nan
2	43862	364	-nan
2	43862	365	-nan
2	43862	366	-nan
2	43862	367	-nan
2	43862	368	-nan
2	43862	369	-nan
2	43862	370	-nan
2	43862	371	-nan
2	43862	372	-nan
2	43862	373	-nan
2	43862	374	-nan
2	43862	375	-nan
2	43862	376	-nan
2	43862	377	-nan
2	43862	378	-nan
2	43862	379	-nan
2	43862	380	-nan
2	43862	381	-nan
2	43862	382	-nan
2	43862	383	-nan
2	43862	384	-nan
2	43862	385	-nan
2	43862	386	-nan
2	43862	387	-nan
2	43862	388	-nan
2	43862	389	-nan
2	43862	390	-nan
2	43862	391	-nan
2	43862	392	-nan
2	43862	393	-nan
2	43862	394	-nan
2	43862	395	-nan
2	43862	396	-nan
2	43862	397	-nan
2	43862	398	-nan
2	43862	399	-nan
2	43862	400	-nan
2	43862	401	-nan
2	43862	402	0
2	43862	403	-nan
2	43862	404	-nan
2	43862	405	-nan
2	43862	406	-nan
2	43862	407	-nan
2	43862	408	-nan
2	43862	409	-nan
2	43862	410	-nan
2	43862	411	-nan
2	43862	412	-nan
2	43862	413	-nan
2	43862	414	-nan
2	43862	415	-nan
2	43862	416	-nan
2	43862	417	-nan
2	43862	418	-nan
2	43862	419	-nan
2	43862	420	0
2	43862	421	-nan
2	43862	422	-nan
2	43862	423	-nan
2	43862	424	-nan
2	43862	425	-nan
2	43862	426	-nan
2	43862	427	-nan
2	43862	428	-nan
2	43862	429	-nan
2	43862	430	-nan
2	43862	431	-nan
2	43862	432	-nan
2	43862	433	-nan
2	43862	434	-nan
2	43862	435	-nan
2	43862	436	-nan
2	43862	437	-nan
2	43862	438	-nan
2	43862	439	-nan
2	43862	440	-nan
2	43862	441	-nan
2	43862	442	-nan
2	43862	443	-nan
2	43862	444	-nan
2	43862	445	-nan
2	43862	446	-nan
2	43862	447	-nan
2	43862	448	-nan
2	43862	449	-nan
2	43862	450	-nan
2	43862	451	-nan
2	43862	452	-nan
2	43862	453	-nan
2	43862	454	-nan
2	43862	455	-nan
2	43862	456	-nan
2	43862	457	-nan
2	43862	458	-nan
2	43862	459	-nan
2	43862	460	-nan
2	43862	461	-nan
2	43862	462	-nan
2	43862	463	-nan
2	43862	464	-nan
2	43862	465	-nan
2	43862	466	-nan
2	43862	467	-nan
2	43862	468	-nan
2	43862	469	-nan
2	43862	470	-nan
2	43862	471	-nan
2	43862	472	-nan
2	43862	473	-nan
2	43862	474	-nan
2	43862	475	-nan
2	43862	476	-nan
2	43862	477	-nan
2	43862	478	-nan
2	43862	479	-nan
2	43862	480	-nan
2	43862	481	-nan
2	43862	482	-nan
2	43862	483	-nan
2	43862	484	-nan
2	43862	485	-nan
2	43862	486	-nan
2	43862	487	-nan
2	43862	488	-nan
2	43862	489	0
2	43862	490	-nan
2	43862	491	-nan
2	43862	492	-nan
2	43862	493	-nan
2	43862	494	-nan
2	43862	495	0
2	43862	496	-nan
2	43862	497	-nan
2	43862	498	-nan
2	43862	499	-nan
2	43862	500	-nan
2	43862	501	-nan
2	43862	502	-nan
2	43862	503	-nan
2	43862	504	-nan
2	43862	505	-nan
2	43862	506	-nan
2	43862	507	-nan
2	43862	508	0
2	43862	509	-nan
2	43862	510	-nan
2	43862	511	-nan
2	43862	512	-nan
2	43862	513	-nan
2	43862	514	-nan
2	43862	515	-nan
2	43862	516	-nan
2	43862	517	-nan
2	43862	518	-nan
2	43862	519	-nan
2	43862	520	-nan
2	43862	521	-nan
2	43862	522	-nan
2	43862	523	-nan
2	43862	524	-nan
2	43862	525	-nan
2	43862	526	-nan
2	43862	527	-nan
2	43862	528	-nan
2	43862	529	-nan
2	43862	530	-nan
2	43862	531	-nan
2	43862	532	-nan