version 2
run General-0-20150521-10:49:44-32659
attr D lce
attr F nrr
attr R lru
attr a 1
attr configname General
attr datetime 20150521-10:49:44
attr experiment General
attr inifile omnetpp.ini
attr iterationvars "$net=geant, $rep=0, $a=1, $F=nrr, $ttl=1000, $D=lce, $R=lru"
attr iterationvars2 "$net=geant, $rep=0, $a=1, $F=nrr, $ttl=1000, $D=lce, $R=lru, $repetition=0"
attr measurement "$net=geant, $rep=0, $a=1, $F=nrr, $ttl=1000, $D=lce, $R=lru"
attr net geant
attr network networks.${net=geant}_network
attr processid 32659
attr rep 0
attr repetition 0
attr replication #0
attr resultdir results
attr runnumber 0
attr seedset 0
attr ttl 1000

vector 0  geant_network.node[0].content_store  hit_node[0]  ETV
0	1196103	1	0.99708454810496
0	1196103	2	0.98520710059172
0	1196103	3	0.9452736318408
0	1196103	4	0.86826347305389
0	1196103	5	0.85135135135135
0	1196103	6	0.76576576576577
0	1196103	7	0.62886597938144
0	1196103	8	0.63953488372093
0	1196103	9	0.484375
0	1196103	10	0.56716417910448
0	1196103	11	0.5
0	1196103	12	0.51515151515152
0	1196103	13	0.51785714285714
0	1196103	14	0.35
0	1196103	15	0.45098039215686
0	1196103	16	0.55357142857143
0	1196103	17	0.48780487804878
0	1196103	18	0.45
0	1196103	19	0.32558139534884
0	1196103	20	0.29032258064516
0	1196103	21	0.26470588235294
0	1196103	22	0.28
0	1196103	23	0.22222222222222
0	1196103	24	0.22222222222222
0	1196103	25	0.30434782608696
0	1196103	26	0.35483870967742
0	1196103	27	0.29166666666667
0	1196103	28	0.3448275862069
0	1196103	29	0.21739130434783
0	1196103	30	0.31818181818182
0	1196103	31	0.30434782608696
0	1196103	32	0.36
0	1196103	33	0.375
0	1196103	34	0.21052631578947
0	1196103	35	0.29166666666667
0	1196103	36	0.28571428571429
0	1196103	37	0.2
0	1196103	38	0.28571428571429
0	1196103	39	0.35
0	1196103	40	0.2962962962963
0	1196103	41	0.30434782608696
0	1196103	42	0.055555555555556
0	1196103	43	0.38461538461538
0	1196103	44	0.22222222222222
0	1196103	45	0.18181818181818
0	1196103	46	0.29411764705882
0	1196103	47	0
0	1196103	48	0.076923076923077
0	1196103	49	0.11764705882353
0	1196103	50	0.38888888888889
0	1196103	51	0.066666666666667
0	1196103	52	0.26666666666667
0	1196103	53	0.16666666666667
0	1196103	54	0.090909090909091
0	1196103	55	0.090909090909091
0	1196103	56	0.1875
0	1196103	57	0.16666666666667
0	1196103	58	0.125
0	1196103	59	0.066666666666667
0	1196103	60	0.090909090909091
0	1196103	61	0.375
0	1196103	62	0.1875
0	1196103	63	0.28571428571429
0	1196103	64	0
0	1196103	65	0
0	1196103	66	0.15384615384615
0	1196103	67	0.28571428571429
0	1196103	68	0
0	1196103	69	0.17647058823529
0	1196103	70	0.36363636363636
0	1196103	71	0.16666666666667
0	1196103	72	0.2
0	1196103	73	0.27586206896552
0	1196103	74	0.125
0	1196103	75	0.16666666666667
0	1196103	76	0
vector 1  geant_network.node[1].content_store  hit_node[1]  ETV
1	1196103	1	-nan
1	1196103	2	-nan
1	1196103	3	0
1	1196103	4	0
1	1196103	5	0.33333333333333
1	1196103	6	0
1	1196103	7	0
1	1196103	8	0.15384615384615
1	1196103	9	-nan
1	1196103	10	0.27272727272727
1	1196103	11	0.33333333333333
1	1196103	12	0.22222222222222
1	1196103	13	0.375
1	1196103	14	0
1	1196103	15	0.53846153846154
1	1196103	16	0.25
1	1196103	17	0
1	1196103	18	0.25
1	1196103	19	0.4
1	1196103	20	0.2
1	1196103	21	0.35714285714286
1	1196103	22	0.3
1	1196103	23	0.090909090909091
1	1196103	24	0.53333333333333
1	1196103	25	0.22222222222222
1	1196103	26	0.25
1	1196103	27	0
1	1196103	28	0.4375
1	1196103	29	0
1	1196103	30	0.16666666666667
1	1196103	31	0.58333333333333
1	1196103	32	0.17647058823529
1	1196103	33	0.4
1	1196103	34	0.41666666666667
1	1196103	35	0.25
1	1196103	36	0.23529411764706
1	1196103	37	0.42857142857143
1	1196103	38	0.6
1	1196103	39	0.1
1	1196103	40	0.58536585365854
1	1196103	41	0.14285714285714
1	1196103	42	0.44444444444444
1	1196103	43	0.18181818181818
1	1196103	44	0.44444444444444
1	1196103	45	0.45454545454545
1	1196103	46	0.4
1	1196103	47	0.42857142857143
1	1196103	48	-nan
1	1196103	49	0.33333333333333
1	1196103	50	0.26666666666667
1	1196103	51	0.41176470588235
1	1196103	52	0.16666666666667
1	1196103	53	0.16666666666667
1	1196103	54	0.42857142857143
1	1196103	55	-nan
1	1196103	56	0.4
1	1196103	57	0.16666666666667
1	1196103	58	0.28571428571429
1	1196103	59	0
1	1196103	60	0.33333333333333
1	1196103	61	0.36842105263158
1	1196103	62	0.41176470588235
1	1196103	63	0.42857142857143
1	1196103	64	0.33333333333333
1	1196103	65	0.375
1	1196103	66	0.46153846153846
1	1196103	67	0
1	1196103	68	0.25
1	1196103	69	0.47826086956522
1	1196103	70	0.22222222222222
1	1196103	71	0.16666666666667
1	1196103	72	0.36363636363636
1	1196103	73	0.23809523809524
1	1196103	74	0.14285714285714
1	1196103	75	0.11111111111111
1	1196103	76	-nan
vector 2  geant_network.node[2].content_store  hit_node[2]  ETV
2	1196103	1	-nan
2	1196103	2	-nan
2	1196103	3	-nan
2	1196103	4	-nan
2	1196103	5	-nan
2	1196103	6	-nan
2	1196103	7	-nan
2	1196103	8	-nan
2	1196103	9	-nan
2	1196103	10	-nan
2	1196103	11	-nan
2	1196103	12	-nan
2	1196103	13	-nan
2	1196103	14	-nan
2	1196103	15	-nan
2	1196103	16	-nan
2	1196103	17	-nan
2	1196103	18	-nan
2	1196103	19	-nan
2	1196103	20	-nan
2	1196103	21	-nan
2	1196103	22	-nan
2	1196103	23	-nan
2	1196103	24	-nan
2	1196103	25	-nan
2	1196103	26	-nan
2	1196103	27	-nan
2	1196103	28	-nan
2	1196103	29	-nan
2	1196103	30	-nan
2	1196103	31	-nan
2	1196103	32	-nan
2	1196103	33	-nan
2	1196103	34	-nan
2	1196103	35	-nan
2	1196103	36	-nan
2	1196103	37	-nan
2	1196103	38	-nan
2	1196103	39	-nan
2	1196103	40	-nan
2	1196103	41	-nan
2	1196103	42	-nan
2	1196103	43	-nan
2	1196103	44	-nan
2	1196103	45	-nan
2	1196103	46	-nan
2	1196103	47	-nan
2	1196103	48	-nan
2	1196103	49	-nan
2	1196103	50	-nan
2	1196103	51	-nan
2	1196103	52	-nan
2	1196103	53	-nan
2	1196103	54	-nan
2	1196103	55	-nan
2	1196103	56	-nan
2	1196103	57	-nan
2	1196103	58	-nan
2	1196103	59	-nan
2	1196103	60	-nan
2	1196103	61	-nan
2	1196103	62	-nan
2	1196103	63	-nan
2	1196103	64	-nan
2	1196103	65	-nan
2	1196103	66	-nan
2	1196103	67	-nan
2	1196103	68	-nan
2	1196103	69	-nan
2	1196103	70	-nan
2	1196103	71	-nan
2	1196103	72	-nan
2	1196103	73	-nan
2	1196103	74	-nan
2	1196103	75	-nan
2	1196103	76	-nan
vector 3  geant_network.node[3].content_store  hit_node[3]  ETV
3	1196103	1	-nan
3	1196103	2	-nan
3	1196103	3	-nan
3	1196103	4	0
3	1196103	5	0.5
3	1196103	6	0
3	1196103	7	-nan
3	1196103	8	0.5
3	1196103	9	0
3	1196103	10	0.45454545454545
3	1196103	11	0.33333333333333
3	1196103	12	0.22222222222222
3	1196103	13	0.5
3	1196103	14	0.125
3	1196103	15	0.28571428571429
3	1196103	16	0.4
3	1196103	17	0
3	1196103	18	0.23076923076923
3	1196103	19	0.5
3	1196103	20	0.45454545454545
3	1196103	21	0.40909090909091
3	1196103	22	0.57142857142857
3	1196103	23	0.25
3	1196103	24	0.45
3	1196103	25	0.55555555555556
3	1196103	26	0.26923076923077
3	1196103	27	0.22222222222222
3	1196103	28	0.23809523809524
3	1196103	29	0.11111111111111
3	1196103	30	0.22222222222222
3	1196103	31	0.27272727272727
3	1196103	32	0.42857142857143
3	1196103	33	0.25
3	1196103	34	0.22222222222222
3	1196103	35	0.25
3	1196103	36	0.23076923076923
3	1196103	37	0.48
3	1196103	38	0.125
3	1196103	39	0.15384615384615
3	1196103	40	0.25806451612903
3	1196103	41	0.26086956521739
3	1196103	42	0.55555555555556
3	1196103	43	0.2
3	1196103	44	0.26086956521739
3	1196103	45	0.4
3	1196103	46	0.33333333333333
3	1196103	47	0
3	1196103	48	0.22222222222222
3	1196103	49	0
3	1196103	50	0.24
3	1196103	51	0.375
3	1196103	52	0.20833333333333
3	1196103	53	0.21052631578947
3	1196103	54	0.42857142857143
3	1196103	55	0.14285714285714
3	1196103	56	0.25
3	1196103	57	0.25
3	1196103	58	0
3	1196103	59	0.28571428571429
3	1196103	60	0.5
3	1196103	61	0.25
3	1196103	62	0.26923076923077
3	1196103	63	0.17647058823529
3	1196103	64	0.14285714285714
3	1196103	65	0.25
3	1196103	66	0.19047619047619
3	1196103	67	0.25
3	1196103	68	0.21428571428571
3	1196103	69	0.23076923076923
3	1196103	70	0.2
3	1196103	71	0
3	1196103	72	0.5
3	1196103	73	0.3125
3	1196103	74	0.25
3	1196103	75	0
3	1196103	76	0.18181818181818
vector 4  geant_network.node[4].content_store  hit_node[4]  ETV
4	1196103	1	0.99862068965517
4	1196103	2	0.95894428152493
4	1196103	3	0.87755102040816
4	1196103	4	0.79885057471264
4	1196103	5	0.74468085106383
4	1196103	6	0.70229007633588
4	1196103	7	0.56179775280899
4	1196103	8	0.63736263736264
4	1196103	9	0.5959595959596
4	1196103	10	0.62365591397849
4	1196103	11	0.49230769230769
4	1196103	12	0.5
4	1196103	13	0.53424657534247
4	1196103	14	0.44067796610169
4	1196103	15	0.42622950819672
4	1196103	16	0.46153846153846
4	1196103	17	0.46153846153846
4	1196103	18	0.34883720930233
4	1196103	19	0.49206349206349
4	1196103	20	0.53225806451613
4	1196103	21	0.45901639344262
4	1196103	22	0.30555555555556
4	1196103	23	0.38461538461538
4	1196103	24	0.44444444444444
4	1196103	25	0.3125
4	1196103	26	0.47272727272727
4	1196103	27	0.41666666666667
4	1196103	28	0.52272727272727
4	1196103	29	0.48936170212766
4	1196103	30	0.33333333333333
4	1196103	31	0.375
4	1196103	32	0.46875
4	1196103	33	0.32258064516129
4	1196103	34	0.29411764705882
4	1196103	35	0.35135135135135
4	1196103	36	0.26086956521739
4	1196103	37	0.43181818181818
4	1196103	38	0.45454545454545
4	1196103	39	0.28571428571429
4	1196103	40	0.36363636363636
4	1196103	41	0.32432432432432
4	1196103	42	0.17647058823529
4	1196103	43	0.20689655172414
4	1196103	44	0.32258064516129
4	1196103	45	0.24
4	1196103	46	0.22727272727273
4	1196103	47	0.2
4	1196103	48	0.35897435897436
4	1196103	49	0.17857142857143
4	1196103	50	0.29411764705882
4	1196103	51	0.20833333333333
4	1196103	52	0.19230769230769
4	1196103	53	0.095238095238095
4	1196103	54	0.16666666666667
4	1196103	55	0.33333333333333
4	1196103	56	0.25
4	1196103	57	0.2
4	1196103	58	0.2
4	1196103	59	0.20588235294118
4	1196103	60	0.2
4	1196103	61	0
4	1196103	62	0.23076923076923
4	1196103	63	0.076923076923077
4	1196103	64	0.28571428571429
4	1196103	65	0.21052631578947
4	1196103	66	0.17647058823529
4	1196103	67	0.1875
4	1196103	68	0.11764705882353
4	1196103	69	0.21428571428571
4	1196103	70	0.28571428571429
4	1196103	71	0.23809523809524
4	1196103	72	0.25
4	1196103	73	0.25
4	1196103	74	0.10526315789474
4	1196103	75	0.23809523809524
4	1196103	76	0.15
vector 5  geant_network.node[5].content_store  hit_node[5]  ETV
5	1196103	1	0.99864682002706
5	1196103	2	0.95412844036697
5	1196103	3	0.8969465648855
5	1196103	4	0.79768786127168
5	1196103	5	0.81168831168831
5	1196103	6	0.72592592592593
5	1196103	7	0.69911504424779
5	1196103	8	0.6875
5	1196103	9	0.5
5	1196103	10	0.59090909090909
5	1196103	11	0.58024691358025
5	1196103	12	0.51724137931034
5	1196103	13	0.48684210526316
5	1196103	14	0.54385964912281
5	1196103	15	0.56944444444444
5	1196103	16	0.56164383561644
5	1196103	17	0.4
5	1196103	18	0.49090909090909
5	1196103	19	0.53658536585366
5	1196103	20	0.4
5	1196103	21	0.375
5	1196103	22	0.48076923076923
5	1196103	23	0.41304347826087
5	1196103	24	0.44117647058824
5	1196103	25	0.37931034482759
5	1196103	26	0.41304347826087
5	1196103	27	0.46666666666667
5	1196103	28	0.46296296296296
5	1196103	29	0.46153846153846
5	1196103	30	0.35483870967742
5	1196103	31	0.25806451612903
5	1196103	32	0.39622641509434
5	1196103	33	0.3448275862069
5	1196103	34	0.37037037037037
5	1196103	35	0.32258064516129
5	1196103	36	0.35897435897436
5	1196103	37	0.15
5	1196103	38	0.16666666666667
5	1196103	39	0.2
5	1196103	40	0.23529411764706
5	1196103	41	0.32352941176471
5	1196103	42	0.27777777777778
5	1196103	43	0.21428571428571
5	1196103	44	0.25925925925926
5	1196103	45	0.25
5	1196103	46	0.15
5	1196103	47	0.33333333333333
5	1196103	48	0.23809523809524
5	1196103	49	0.35714285714286
5	1196103	50	0.25
5	1196103	51	0.21739130434783
5	1196103	52	0.28571428571429
5	1196103	53	0.34782608695652
5	1196103	54	0.27586206896552
5	1196103	55	0.10526315789474
5	1196103	56	0.30434782608696
5	1196103	57	0.14285714285714
5	1196103	58	0.22727272727273
5	1196103	59	0.31578947368421
5	1196103	60	0.066666666666667
5	1196103	61	0.27659574468085
5	1196103	62	0.23529411764706
5	1196103	63	0.24137931034483
5	1196103	64	0.26086956521739
5	1196103	65	0.058823529411765
5	1196103	66	0.22222222222222
5	1196103	67	0.16666666666667
5	1196103	68	0.32558139534884
5	1196103	69	0.14285714285714
5	1196103	70	0.26666666666667
5	1196103	71	0.21428571428571
5	1196103	72	0.15384615384615
5	1196103	73	0.2
5	1196103	74	0.125
5	1196103	75	0.1
5	1196103	76	0.16666666666667
vector 6  geant_network.node[6].content_store  hit_node[6]  ETV
6	1196103	1	0.99850746268657
6	1196103	2	0.99715909090909
6	1196103	3	0.99173553719008
6	1196103	4	0.96590909090909
6	1196103	5	0.94078947368421
6	1196103	6	0.93382352941176
6	1196103	7	0.89423076923077
6	1196103	8	0.671875
6	1196103	9	0.86407766990291
6	1196103	10	0.85869565217391
6	1196103	11	0.79310344827586
6	1196103	12	0.6865671641791
6	1196103	13	0.78823529411765
6	1196103	14	0.66
6	1196103	15	0.74603174603175
6	1196103	16	0.72727272727273
6	1196103	17	0.60526315789474
6	1196103	18	0.64444444444444
6	1196103	19	0.55172413793103
6	1196103	20	0.71428571428571
6	1196103	21	0.65957446808511
6	1196103	22	0.36111111111111
6	1196103	23	0.575
6	1196103	24	0.46666666666667
6	1196103	25	0.58974358974359
6	1196103	26	0.73170731707317
6	1196103	27	0.55555555555556
6	1196103	28	0.22727272727273
6	1196103	29	0.5
6	1196103	30	0.5609756097561
6	1196103	31	0.45454545454545
6	1196103	32	0.38095238095238
6	1196103	33	0.42857142857143
6	1196103	34	0.44
6	1196103	35	0.51724137931034
6	1196103	36	0.31578947368421
6	1196103	37	0.58823529411765
6	1196103	38	0.59090909090909
6	1196103	39	0.5
6	1196103	40	0.5
6	1196103	41	0.63636363636364
6	1196103	42	0.25
6	1196103	43	0.38095238095238
6	1196103	44	0.27272727272727
6	1196103	45	0.46428571428571
6	1196103	46	0.16666666666667
6	1196103	47	0.25
6	1196103	48	0.40909090909091
6	1196103	49	0.16666666666667
6	1196103	50	0.22222222222222
6	1196103	51	0.45833333333333
6	1196103	52	0.6
6	1196103	53	0.38888888888889
6	1196103	54	0.42857142857143
6	1196103	55	0.16666666666667
6	1196103	56	0.47368421052632
6	1196103	57	0.35714285714286
6	1196103	58	0.21428571428571
6	1196103	59	0.35714285714286
6	1196103	60	0.46666666666667
6	1196103	61	0.2
6	1196103	62	0.375
6	1196103	63	0.36842105263158
6	1196103	64	0.25
6	1196103	65	0.52631578947368
6	1196103	66	0.42857142857143
6	1196103	67	0.46666666666667
6	1196103	68	0.11111111111111
6	1196103	69	0.28571428571429
6	1196103	70	0.36363636363636
6	1196103	71	0.27272727272727
6	1196103	72	0.375
6	1196103	73	0.125
6	1196103	74	0.33333333333333
6	1196103	75	0
6	1196103	76	0.53846153846154
vector 7  geant_network.node[7].content_store  hit_node[7]  ETV
7	1196103	1	-nan
7	1196103	2	0.66666666666667
7	1196103	3	0.5
7	1196103	4	0
7	1196103	5	0.33333333333333
7	1196103	6	0.5
7	1196103	7	0.28571428571429
7	1196103	8	0
7	1196103	9	0.25
7	1196103	10	0
7	1196103	11	0.25
7	1196103	12	0.26666666666667
7	1196103	13	0.30769230769231
7	1196103	14	0.23076923076923
7	1196103	15	0.41176470588235
7	1196103	16	0.41666666666667
7	1196103	17	0.17647058823529
7	1196103	18	0.1
7	1196103	19	0.25
7	1196103	20	0.23529411764706
7	1196103	21	0.36842105263158
7	1196103	22	0.26315789473684
7	1196103	23	0.28571428571429
7	1196103	24	0.3
7	1196103	25	0.17647058823529
7	1196103	26	0.3
7	1196103	27	0
7	1196103	28	0.44444444444444
7	1196103	29	0.11764705882353
7	1196103	30	0.51428571428571
7	1196103	31	0.28571428571429
7	1196103	32	0
7	1196103	33	0.16666666666667
7	1196103	34	0.44827586206897
7	1196103	35	0.5
7	1196103	36	0
7	1196103	37	0.33333333333333
7	1196103	38	0.30769230769231
7	1196103	39	0.45945945945946
7	1196103	40	0
7	1196103	41	0.33333333333333
7	1196103	42	0.41666666666667
7	1196103	43	0.14285714285714
7	1196103	44	0.25
7	1196103	45	0
7	1196103	46	0.28571428571429
7	1196103	47	0.4
7	1196103	48	0.47727272727273
7	1196103	49	0.24
7	1196103	50	0.5
7	1196103	51	0.27272727272727
7	1196103	52	0.14285714285714
7	1196103	53	0.44444444444444
7	1196103	54	0.28571428571429
7	1196103	55	0.33333333333333
7	1196103	56	0.33333333333333
7	1196103	57	0.38461538461538
7	1196103	58	0.2
7	1196103	59	0.27777777777778
7	1196103	60	0
7	1196103	61	0
7	1196103	62	0
7	1196103	63	0
7	1196103	64	0
7	1196103	65	0.25
7	1196103	66	0.33333333333333
7	1196103	67	0.20689655172414
7	1196103	68	0
7	1196103	69	0
7	1196103	70	0
7	1196103	71	0.4
7	1196103	72	0.2
7	1196103	73	0.5
7	1196103	74	0.1
7	1196103	75	0.28571428571429
7	1196103	76	0.16666666666667
vector 8  geant_network.node[8].content_store  hit_node[8]  ETV
8	1196103	1	-nan
8	1196103	2	0
8	1196103	3	0
8	1196103	4	-nan
8	1196103	5	-nan
8	1196103	6	0.5
8	1196103	7	0.33333333333333
8	1196103	8	-nan
8	1196103	9	0
8	1196103	10	0.5
8	1196103	11	0.33333333333333
8	1196103	12	0.52173913043478
8	1196103	13	0
8	1196103	14	0.5
8	1196103	15	0.16666666666667
8	1196103	16	0
8	1196103	17	0.51724137931034
8	1196103	18	0.33333333333333
8	1196103	19	0.28571428571429
8	1196103	20	0.16666666666667
8	1196103	21	0
8	1196103	22	0.55172413793103
8	1196103	23	0
8	1196103	24	0
8	1196103	25	0
8	1196103	26	0.57142857142857
8	1196103	27	0.25
8	1196103	28	0.2
8	1196103	29	0.44827586206897
8	1196103	30	0.11111111111111
8	1196103	31	0
8	1196103	32	-nan
8	1196103	33	0
8	1196103	34	0.30769230769231
8	1196103	35	0.33333333333333
8	1196103	36	-nan
8	1196103	37	0
8	1196103	38	0.5
8	1196103	39	0.2
8	1196103	40	0
8	1196103	41	0.5
8	1196103	42	0.25
8	1196103	43	0.44117647058824
8	1196103	44	0
8	1196103	45	0
8	1196103	46	0
8	1196103	47	0
8	1196103	48	0.125
8	1196103	49	0.60526315789474
8	1196103	50	0.57142857142857
8	1196103	51	0.4
8	1196103	52	0.4
8	1196103	53	0.33333333333333
8	1196103	54	0
8	1196103	55	0
8	1196103	56	0.66666666666667
8	1196103	57	0.2
8	1196103	58	0.5
8	1196103	59	0.42424242424242
8	1196103	60	-nan
8	1196103	61	-nan
8	1196103	62	-nan
8	1196103	63	-nan
8	1196103	64	-nan
8	1196103	65	0
8	1196103	66	0.66666666666667
8	1196103	67	0.55
8	1196103	68	-nan
8	1196103	69	-nan
8	1196103	70	-nan
8	1196103	71	0.16666666666667
8	1196103	72	0
8	1196103	73	0
8	1196103	74	0.6
8	1196103	75	0
8	1196103	76	0
vector 9  geant_network.node[9].content_store  hit_node[9]  ETV
9	1196103	1	0.99703703703704
9	1196103	2	0.95356037151703
9	1196103	3	0.90789473684211
9	1196103	4	0.7797619047619
9	1196103	5	0.72602739726027
9	1196103	6	0.63865546218487
9	1196103	7	0.58695652173913
9	1196103	8	0.48101265822785
9	1196103	9	0.38235294117647
9	1196103	10	0.54945054945055
9	1196103	11	0.42372881355932
9	1196103	12	0.45205479452055
9	1196103	13	0.4
9	1196103	14	0.49056603773585
9	1196103	15	0.37037037037037
9	1196103	16	0.27906976744186
9	1196103	17	0.36363636363636
9	1196103	18	0.29268292682927
9	1196103	19	0.34545454545455
9	1196103	20	0.3030303030303
9	1196103	21	0.27272727272727
9	1196103	22	0.24489795918367
9	1196103	23	0.35714285714286
9	1196103	24	0.22222222222222
9	1196103	25	0.37931034482759
9	1196103	26	0.26190476190476
9	1196103	27	0.52
9	1196103	28	0.2972972972973
9	1196103	29	0.33333333333333
9	1196103	30	0.32258064516129
9	1196103	31	0.23333333333333
9	1196103	32	0.21739130434783
9	1196103	33	0.36
9	1196103	34	0.15625
9	1196103	35	0.31034482758621
9	1196103	36	0.21428571428571
9	1196103	37	0.13333333333333
9	1196103	38	0.20588235294118
9	1196103	39	0.26086956521739
9	1196103	40	0.21428571428571
9	1196103	41	0.2
9	1196103	42	0.18181818181818
9	1196103	43	0.34210526315789
9	1196103	44	0.10526315789474
9	1196103	45	0.25
9	1196103	46	0.37254901960784
9	1196103	47	0.33333333333333
9	1196103	48	0.17241379310345
9	1196103	49	0.27272727272727
9	1196103	50	0.17647058823529
9	1196103	51	0.3
9	1196103	52	0.19230769230769
9	1196103	53	0.17391304347826
9	1196103	54	0.16666666666667
9	1196103	55	0.125
9	1196103	56	0.23809523809524
9	1196103	57	0.12
9	1196103	58	0.14285714285714
9	1196103	59	0.16129032258065
9	1196103	60	0.083333333333333
9	1196103	61	0.071428571428571
9	1196103	62	0.1875
9	1196103	63	0
9	1196103	64	0.10526315789474
9	1196103	65	0.27272727272727
9	1196103	66	0.16666666666667
9	1196103	67	0.052631578947368
9	1196103	68	0.23529411764706
9	1196103	69	0.1875
9	1196103	70	0.16666666666667
9	1196103	71	0.21621621621622
9	1196103	72	0.21739130434783
9	1196103	73	0.083333333333333
9	1196103	74	0.11111111111111
9	1196103	75	0.1
9	1196103	76	0
vector 10  geant_network.node[10].content_store  hit_node[10]  ETV
10	1196103	1	0.99847792998478
10	1196103	2	0.99365079365079
10	1196103	3	0.98353909465021
10	1196103	4	0.96682464454976
10	1196103	5	0.94578313253012
10	1196103	6	0.94705882352941
10	1196103	7	0.92198581560284
10	1196103	8	0.95679012345679
10	1196103	9	0.88288288288288
10	1196103	10	0.89763779527559
10	1196103	11	0.84536082474227
10	1196103	12	0.84615384615385
10	1196103	13	0.84090909090909
10	1196103	14	0.79120879120879
10	1196103	15	0.76623376623377
10	1196103	16	0.74626865671642
10	1196103	17	0.72413793103448
10	1196103	18	0.75
10	1196103	19	0.67796610169492
10	1196103	20	0.55102040816327
10	1196103	21	0.76923076923077
10	1196103	22	0.61111111111111
10	1196103	23	0.48837209302326
10	1196103	24	0.71153846153846
10	1196103	25	0.55555555555556
10	1196103	26	0.76470588235294
10	1196103	27	0.55882352941176
10	1196103	28	0.41935483870968
10	1196103	29	0.4
10	1196103	30	0.52777777777778
10	1196103	31	0.60869565217391
10	1196103	32	0.6969696969697
10	1196103	33	0.30769230769231
10	1196103	34	0.46428571428571
10	1196103	35	0.33333333333333
10	1196103	36	0.4375
10	1196103	37	0.33333333333333
10	1196103	38	0.41379310344828
10	1196103	39	0.47368421052632
10	1196103	40	0.52380952380952
10	1196103	41	0.5
10	1196103	42	0.47826086956522
10	1196103	43	0.52941176470588
10	1196103	44	0.15384615384615
10	1196103	45	0.36363636363636
10	1196103	46	0.23809523809524
10	1196103	47	0.48
10	1196103	48	0.51851851851852
10	1196103	49	0.4
10	1196103	50	0.27777777777778
10	1196103	51	0.33333333333333
10	1196103	52	0.47826086956522
10	1196103	53	0.23529411764706
10	1196103	54	0.18181818181818
10	1196103	55	0.083333333333333
10	1196103	56	0.44444444444444
10	1196103	57	0.35
10	1196103	58	0.090909090909091
10	1196103	59	0.35
10	1196103	60	0.25
10	1196103	61	0.22222222222222
10	1196103	62	0.15384615384615
10	1196103	63	0.36363636363636
10	1196103	64	0.55555555555556
10	1196103	65	0.30769230769231
10	1196103	66	0.25
10	1196103	67	0.22222222222222
10	1196103	68	0.5
10	1196103	69	0.4
10	1196103	70	0.3
10	1196103	71	0.1875
10	1196103	72	0.25
10	1196103	73	0.2
10	1196103	74	0.45454545454545
10	1196103	75	0
10	1196103	76	0.4
vector 11  geant_network.node[11].content_store  hit_node[11]  ETV
11	1196103	1	0.99856527977044
11	1196103	2	0.98787878787879
11	1196103	3	0.95495495495495
11	1196103	4	0.92063492063492
11	1196103	5	0.85714285714286
11	1196103	6	0.77685950413223
11	1196103	7	0.79487179487179
11	1196103	8	0.6875
11	1196103	9	0.75
11	1196103	10	0.69620253164557
11	1196103	11	0.61290322580645
11	1196103	12	0.61363636363636
11	1196103	13	0.58928571428571
11	1196103	14	0.59375
11	1196103	15	0.48717948717949
11	1196103	16	0.6
11	1196103	17	0.4
11	1196103	18	0.47916666666667
11	1196103	19	0.4
11	1196103	20	0.52
11	1196103	21	0.38709677419355
11	1196103	22	0.58139534883721
11	1196103	23	0.46153846153846
11	1196103	24	0.48648648648649
11	1196103	25	0.48979591836735
11	1196103	26	0.4
11	1196103	27	0.30434782608696
11	1196103	28	0.46428571428571
11	1196103	29	0.46153846153846
11	1196103	30	0.38095238095238
11	1196103	31	0.39285714285714
11	1196103	32	0.45945945945946
11	1196103	33	0.4
11	1196103	34	0.30769230769231
11	1196103	35	0.28571428571429
11	1196103	36	0.34782608695652
11	1196103	37	0.38461538461538
11	1196103	38	0.15384615384615
11	1196103	39	0.33333333333333
11	1196103	40	0.38461538461538
11	1196103	41	0.071428571428571
11	1196103	42	0.47826086956522
11	1196103	43	0.375
11	1196103	44	0.41176470588235
11	1196103	45	0.31578947368421
11	1196103	46	0.23529411764706
11	1196103	47	0.33333333333333
11	1196103	48	0.13333333333333
11	1196103	49	0.29411764705882
11	1196103	50	0.36363636363636
11	1196103	51	0.25
11	1196103	52	0.375
11	1196103	53	0.43478260869565
11	1196103	54	0.25
11	1196103	55	0
11	1196103	56	0.2
11	1196103	57	0.41176470588235
11	1196103	58	0.3125
11	1196103	59	0.125
11	1196103	60	0.22222222222222
11	1196103	61	0.18181818181818
11	1196103	62	0.28571428571429
11	1196103	63	0.125
11	1196103	64	0.15384615384615
11	1196103	65	0.25714285714286
11	1196103	66	0.4
11	1196103	67	0.25
11	1196103	68	0.16666666666667
11	1196103	69	0.38461538461538
11	1196103	70	0
11	1196103	71	0.35714285714286
11	1196103	72	0.18181818181818
11	1196103	73	0.22222222222222
11	1196103	74	0.33333333333333
11	1196103	75	0.28571428571429
11	1196103	76	0.33333333333333
vector 12  geant_network.node[12].content_store  hit_node[12]  ETV
12	1196103	1	0.5
12	1196103	2	-nan
12	1196103	3	-nan
12	1196103	4	0.33333333333333
12	1196103	5	0.14285714285714
12	1196103	6	0.5
12	1196103	7	0
12	1196103	8	0.25
12	1196103	9	0.33333333333333
12	1196103	10	0.16666666666667
12	1196103	11	0.23076923076923
12	1196103	12	0
12	1196103	13	0.23529411764706
12	1196103	14	0.125
12	1196103	15	0.27777777777778
12	1196103	16	0.18181818181818
12	1196103	17	0.25
12	1196103	18	0.28125
12	1196103	19	0.125
12	1196103	20	0.23076923076923
12	1196103	21	0.2
12	1196103	22	0.14285714285714
12	1196103	23	0
12	1196103	24	0.090909090909091
12	1196103	25	0
12	1196103	26	0.25
12	1196103	27	0.16666666666667
12	1196103	28	0.17857142857143
12	1196103	29	0.083333333333333
12	1196103	30	0
12	1196103	31	0.18918918918919
12	1196103	32	0.11538461538462
12	1196103	33	0.0625
12	1196103	34	0.11538461538462
12	1196103	35	0.23076923076923
12	1196103	36	0.15625
12	1196103	37	0.033333333333333
12	1196103	38	0.08695652173913
12	1196103	39	0.14285714285714
12	1196103	40	0.15625
12	1196103	41	0.14285714285714
12	1196103	42	0.17647058823529
12	1196103	43	0.071428571428571
12	1196103	44	0.18518518518519
12	1196103	45	0.1
12	1196103	46	0.28
12	1196103	47	0.125
12	1196103	48	0.23076923076923
12	1196103	49	0
12	1196103	50	0.08
12	1196103	51	0.15
12	1196103	52	0.045454545454545
12	1196103	53	0.21276595744681
12	1196103	54	0.15384615384615
12	1196103	55	0.10526315789474
12	1196103	56	0.10526315789474
12	1196103	57	0.15384615384615
12	1196103	58	0.090909090909091
12	1196103	59	0.2
12	1196103	60	0.1875
12	1196103	61	0.13636363636364
12	1196103	62	0.11538461538462
12	1196103	63	0.15625
12	1196103	64	0.083333333333333
12	1196103	65	0.043478260869565
12	1196103	66	0.1304347826087
12	1196103	67	0.25
12	1196103	68	0.1304347826087
12	1196103	69	0.058823529411765
12	1196103	70	0
12	1196103	71	0.076923076923077
12	1196103	72	0
12	1196103	73	0.066666666666667
12	1196103	74	0.25641025641026
12	1196103	75	0.076923076923077
12	1196103	76	0.055555555555556
vector 13  geant_network.node[13].content_store  hit_node[13]  ETV
13	1196103	1	-nan
13	1196103	2	-nan
13	1196103	3	-nan
13	1196103	4	-nan
13	1196103	5	0
13	1196103	6	0
13	1196103	7	0
13	1196103	8	0.5
13	1196103	9	0
13	1196103	10	0.25
13	1196103	11	0.33333333333333
13	1196103	12	-nan
13	1196103	13	0
13	1196103	14	0
13	1196103	15	0.4
13	1196103	16	0.25
13	1196103	17	0
13	1196103	18	0.75
13	1196103	19	0
13	1196103	20	0.33333333333333
13	1196103	21	0
13	1196103	22	0
13	1196103	23	-nan
13	1196103	24	0.4
13	1196103	25	-nan
13	1196103	26	0.54545454545455
13	1196103	27	0
13	1196103	28	-nan
13	1196103	29	0
13	1196103	30	0
13	1196103	31	0
13	1196103	32	0.5
13	1196103	33	0.54545454545455
13	1196103	34	-nan
13	1196103	35	0.6
13	1196103	36	0
13	1196103	37	0.375
13	1196103	38	0.52380952380952
13	1196103	39	0
13	1196103	40	0.28571428571429
13	1196103	41	0.25
13	1196103	42	0
13	1196103	43	0.5
13	1196103	44	0.42857142857143
13	1196103	45	0.45454545454545
13	1196103	46	0.6
13	1196103	47	-nan
13	1196103	48	-nan
13	1196103	49	0.66666666666667
13	1196103	50	0.33333333333333
13	1196103	51	0
13	1196103	52	0.25
13	1196103	53	0
13	1196103	54	0.58823529411765
13	1196103	55	0.46666666666667
13	1196103	56	0.090909090909091
13	1196103	57	-nan
13	1196103	58	0.26666666666667
13	1196103	59	-nan
13	1196103	60	0.58974358974359
13	1196103	61	0.5
13	1196103	62	0.5
13	1196103	63	0.25
13	1196103	64	0.5
13	1196103	65	0.5625
13	1196103	66	0.5
13	1196103	67	-nan
13	1196103	68	0
13	1196103	69	0
13	1196103	70	0
13	1196103	71	0.33333333333333
13	1196103	72	-nan
13	1196103	73	0.875
13	1196103	74	0.2
13	1196103	75	-nan
13	1196103	76	0.25
vector 14  geant_network.node[14].content_store  hit_node[14]  ETV
14	1196103	1	0.99036918138042
14	1196103	2	0.95251396648045
14	1196103	3	0.88888888888889
14	1196103	4	0.83417085427136
14	1196103	5	0.78125
14	1196103	6	0.72297297297297
14	1196103	7	0.712
14	1196103	8	0.59615384615385
14	1196103	9	0.61111111111111
14	1196103	10	0.67647058823529
14	1196103	11	0.6
14	1196103	12	0.53246753246753
14	1196103	13	0.55072463768116
14	1196103	14	0.58974358974359
14	1196103	15	0.55223880597015
14	1196103	16	0.53947368421053
14	1196103	17	0.49152542372881
14	1196103	18	0.44642857142857
14	1196103	19	0.54716981132075
14	1196103	20	0.48936170212766
14	1196103	21	0.56521739130435
14	1196103	22	0.52727272727273
14	1196103	23	0.41860465116279
14	1196103	24	0.52727272727273
14	1196103	25	0.51063829787234
14	1196103	26	0.39473684210526
14	1196103	27	0.6
14	1196103	28	0.17391304347826
14	1196103	29	0.34883720930233
14	1196103	30	0.35294117647059
14	1196103	31	0.46
14	1196103	32	0.30769230769231
14	1196103	33	0.35897435897436
14	1196103	34	0.25
14	1196103	35	0.42424242424242
14	1196103	36	0.53225806451613
14	1196103	37	0.48076923076923
14	1196103	38	0.38461538461538
14	1196103	39	0.28571428571429
14	1196103	40	0.41666666666667
14	1196103	41	0.2972972972973
14	1196103	42	0.40625
14	1196103	43	0.3448275862069
14	1196103	44	0.39130434782609
14	1196103	45	0.44444444444444
14	1196103	46	0.33333333333333
14	1196103	47	0.47826086956522
14	1196103	48	0.35
14	1196103	49	0.1875
14	1196103	50	0.20833333333333
14	1196103	51	0.31818181818182
14	1196103	52	0.375
14	1196103	53	0.22727272727273
14	1196103	54	0.49019607843137
14	1196103	55	0.225
14	1196103	56	0.42857142857143
14	1196103	57	0.21052631578947
14	1196103	58	0.45283018867925
14	1196103	59	0.2
14	1196103	60	0.4
14	1196103	61	0.26315789473684
14	1196103	62	0.42105263157895
14	1196103	63	0.47058823529412
14	1196103	64	0.38775510204082
14	1196103	65	0.22222222222222
14	1196103	66	0.31818181818182