version 2
run General-0-20150519-11:38:05-23083
attr D lce
attr F nrr
attr R lru
attr a 1
attr configname General
attr datetime 20150519-11:38:05
attr experiment General
attr inifile omnetpp.ini
attr iterationvars "$net=geant, $rep=0, $a=1, $F=nrr, $ttl=1000, $D=lce, $R=lru"
attr iterationvars2 "$net=geant, $rep=0, $a=1, $F=nrr, $ttl=1000, $D=lce, $R=lru, $repetition=0"
attr measurement "$net=geant, $rep=0, $a=1, $F=nrr, $ttl=1000, $D=lce, $R=lru"
attr net geant
attr network networks.${net=geant}_network
attr processid 23083
attr rep 0
attr repetition 0
attr replication #0
attr resultdir results
attr runnumber 0
attr seedset 0
attr ttl 1000

vector 0  geant_network.node[0].content_store  hit_node[0]  ETV
0	6949854	1	1
0	6949854	2	0.98863636363636
0	6949854	3	0.98484848484848
0	6949854	4	0.90384615384615
0	6949854	5	0.65384615384615
0	6949854	6	0.80769230769231
0	6949854	7	0.75
0	6949854	8	0.77777777777778
0	6949854	9	0.63636363636364
0	6949854	10	0.66666666666667
0	6949854	11	0.36363636363636
0	6949854	12	0.36363636363636
0	6949854	13	0.5
0	6949854	14	0.42857142857143
0	6949854	15	0.52631578947368
0	6949854	16	0.33333333333333
0	6949854	17	0.375
0	6949854	18	0.35714285714286
0	6949854	19	0.2
0	6949854	20	0.5
0	6949854	21	0.22222222222222
0	6949854	22	0.42857142857143
0	6949854	23	0
0	6949854	24	0
0	6949854	25	0.375
0	6949854	26	0.33333333333333
0	6949854	27	0.25
0	6949854	28	0.33333333333333
0	6949854	29	0.33333333333333
0	6949854	30	0
0	6949854	31	0.57142857142857
0	6949854	32	0.33333333333333
0	6949854	33	0.33333333333333
0	6949854	34	0.33333333333333
0	6949854	35	0.28571428571429
0	6949854	36	0.4
0	6949854	37	0.4
0	6949854	38	0.16666666666667
0	6949854	39	0.5
0	6949854	40	0.16666666666667
0	6949854	41	0.375
0	6949854	42	0.25
0	6949854	43	0.2
0	6949854	44	0
0	6949854	45	0
0	6949854	46	0
0	6949854	47	0
0	6949854	48	0.33333333333333
0	6949854	49	0.125
0	6949854	50	0.36363636363636
0	6949854	51	0
0	6949854	52	0
0	6949854	53	0
0	6949854	54	0.25
0	6949854	55	0.16666666666667
0	6949854	56	0.25
0	6949854	57	0
0	6949854	58	0
0	6949854	59	0
0	6949854	60	-nan
0	6949854	61	0
0	6949854	62	0
0	6949854	63	0
0	6949854	64	0
0	6949854	65	-nan
0	6949854	66	0
0	6949854	67	0
0	6949854	68	0.4
0	6949854	69	0.33333333333333
0	6949854	70	0.25
0	6949854	71	0
0	6949854	72	0
0	6949854	73	0.27272727272727
0	6949854	74	0
0	6949854	75	-nan
0	6949854	76	0
vector 1  geant_network.node[1].content_store  hit_node[1]  ETV
1	6949854	1	-nan
1	6949854	2	-nan
1	6949854	3	-nan
1	6949854	4	-nan
1	6949854	5	-nan
1	6949854	6	-nan
1	6949854	7	-nan
1	6949854	8	0
1	6949854	9	-nan
1	6949854	10	0
1	6949854	11	0.25
1	6949854	12	-nan
1	6949854	13	0
1	6949854	14	-nan
1	6949854	15	-nan
1	6949854	16	0
1	6949854	17	0
1	6949854	18	0
1	6949854	19	0
1	6949854	20	0.2
1	6949854	21	0.33333333333333
1	6949854	22	-nan
1	6949854	23	0
1	6949854	24	0
1	6949854	25	0.28571428571429
1	6949854	26	0
1	6949854	27	0.5
1	6949854	28	0.25
1	6949854	29	0
1	6949854	30	-nan
1	6949854	31	0.5
1	6949854	32	-nan
1	6949854	33	0.66666666666667
1	6949854	34	0
1	6949854	35	0.71428571428571
1	6949854	36	0
1	6949854	37	0
1	6949854	38	0.28571428571429
1	6949854	39	0
1	6949854	40	0.55555555555556
1	6949854	41	0.4
1	6949854	42	0
1	6949854	43	0
1	6949854	44	0
1	6949854	45	0
1	6949854	46	0.33333333333333
1	6949854	47	0
1	6949854	48	0.5
1	6949854	49	0
1	6949854	50	0.28571428571429
1	6949854	51	0.4
1	6949854	52	0.33333333333333
1	6949854	53	1
1	6949854	54	0
1	6949854	55	0.75
1	6949854	56	-nan
1	6949854	57	0
1	6949854	58	-nan
1	6949854	59	0
1	6949854	60	-nan
1	6949854	61	0.25
1	6949854	62	0
1	6949854	63	0.5
1	6949854	64	-nan
1	6949854	65	-nan
1	6949854	66	0
1	6949854	67	-nan
1	6949854	68	0
1	6949854	69	0.45454545454545
1	6949854	70	0
1	6949854	71	0.5
1	6949854	72	-nan
1	6949854	73	0
1	6949854	74	0
1	6949854	75	-nan
1	6949854	76	-nan
vector 2  geant_network.node[2].content_store  hit_node[2]  ETV
2	6949854	1	-nan
2	6949854	2	-nan
2	6949854	3	-nan
2	6949854	4	-nan
2	6949854	5	-nan
2	6949854	6	-nan
2	6949854	7	-nan
2	6949854	8	-nan
2	6949854	9	-nan
2	6949854	10	-nan
2	6949854	11	-nan
2	6949854	12	-nan
2	6949854	13	-nan
2	6949854	14	-nan
2	6949854	15	-nan
2	6949854	16	-nan
2	6949854	17	-nan
2	6949854	18	-nan
2	6949854	19	-nan
2	6949854	20	-nan
2	6949854	21	-nan
2	6949854	22	-nan
2	6949854	23	-nan
2	6949854	24	-nan
2	6949854	25	-nan
2	6949854	26	-nan
2	6949854	27	-nan
2	6949854	28	-nan
2	6949854	29	-nan
2	6949854	30	-nan
2	6949854	31	-nan
2	6949854	32	-nan
2	6949854	33	-nan
2	6949854	34	-nan
2	6949854	35	-nan
2	6949854	36	-nan
2	6949854	37	-nan
2	6949854	38	-nan
2	6949854	39	-nan
2	6949854	40	-nan
2	6949854	41	-nan
2	6949854	42	-nan
2	6949854	43	-nan
2	6949854	44	-nan
2	6949854	45	-nan
2	6949854	46	-nan
2	6949854	47	-nan
2	6949854	48	-nan
2	6949854	49	-nan
2	6949854	50	-nan
2	6949854	51	-nan
2	6949854	52	-nan
2	6949854	53	-nan
2	6949854	54	-nan
2	6949854	55	-nan
2	6949854	56	-nan
2	6949854	57	-nan
2	6949854	58	-nan
2	6949854	59	-nan
2	6949854	60	-nan
2	6949854	61	-nan
2	6949854	62	-nan
2	6949854	63	-nan
2	6949854	64	-nan
2	6949854	65	-nan
2	6949854	66	-nan
2	6949854	67	-nan
2	6949854	68	-nan
2	6949854	69	-nan
2	6949854	70	-nan
2	6949854	71	-nan
2	6949854	72	-nan
2	6949854	73	-nan
2	6949854	74	-nan
2	6949854	75	-nan
2	6949854	76	-nan
vector 3  geant_network.node[3].content_store  hit_node[3]  ETV
3	6949854	1	-nan
3	6949854	2	-nan
3	6949854	3	-nan
3	6949854	4	-nan
3	6949854	5	0
3	6949854	6	0
3	6949854	7	-nan
3	6949854	8	-nan
3	6949854	9	-nan
3	6949854	10	0
3	6949854	11	0.5
3	6949854	12	-nan
3	6949854	13	0
3	6949854	14	0
3	6949854	15	0
3	6949854	16	0.33333333333333
3	6949854	17	0
3	6949854	18	-nan
3	6949854	19	0.5
3	6949854	20	0.2
3	6949854	21	0.33333333333333
3	6949854	22	-nan
3	6949854	23	0.5
3	6949854	24	0.5
3	6949854	25	0.375
3	6949854	26	0
3	6949854	27	0.33333333333333
3	6949854	28	0.66666666666667
3	6949854	29	-nan
3	6949854	30	0
3	6949854	31	0.5
3	6949854	32	0.2
3	6949854	33	0.2
3	6949854	34	0.33333333333333
3	6949854	35	0
3	6949854	36	0
3	6949854	37	0
3	6949854	38	0
3	6949854	39	0
3	6949854	40	0
3	6949854	41	0
3	6949854	42	1
3	6949854	43	0
3	6949854	44	0.8
3	6949854	45	0.25
3	6949854	46	0
3	6949854	47	0
3	6949854	48	0.33333333333333
3	6949854	49	0.33333333333333
3	6949854	50	0.5
3	6949854	51	0.25
3	6949854	52	0.33333333333333
3	6949854	53	0.125
3	6949854	54	0.33333333333333
3	6949854	55	0.28571428571429
3	6949854	56	0
3	6949854	57	-nan
3	6949854	58	0.33333333333333
3	6949854	59	0.25
3	6949854	60	0
3	6949854	61	0.2
3	6949854	62	0.5
3	6949854	63	0.25
3	6949854	64	-nan
3	6949854	65	0
3	6949854	66	0
3	6949854	67	0
3	6949854	68	0.4
3	6949854	69	0.33333333333333
3	6949854	70	0.42857142857143
3	6949854	71	0.2
3	6949854	72	-nan
3	6949854	73	0.16666666666667
3	6949854	74	0
3	6949854	75	-nan
3	6949854	76	0.5
vector 4  geant_network.node[4].content_store  hit_node[4]  ETV
4	6949854	1	1
4	6949854	2	0.91566265060241
4	6949854	3	0.88524590163934
4	6949854	4	0.89795918367347
4	6949854	5	0.67741935483871
4	6949854	6	0.67647058823529
4	6949854	7	0.65625
4	6949854	8	0.6551724137931
4	6949854	9	0.6
4	6949854	10	0.7037037037037
4	6949854	11	0.6
4	6949854	12	0.46666666666667
4	6949854	13	0.42857142857143
4	6949854	14	0.64
4	6949854	15	0.52941176470588
4	6949854	16	0.6
4	6949854	17	0.5
4	6949854	18	0.35714285714286
4	6949854	19	0.5
4	6949854	20	0.36363636363636
4	6949854	21	0.36363636363636
4	6949854	22	0.16666666666667
4	6949854	23	0.3
4	6949854	24	0.63636363636364
4	6949854	25	0.2
4	6949854	26	0.54545454545455
4	6949854	27	0.63636363636364
4	6949854	28	0.28571428571429
4	6949854	29	0.4
4	6949854	30	0.53333333333333
4	6949854	31	0.25
4	6949854	32	0.33333333333333
4	6949854	33	0.6
4	6949854	34	0.22222222222222
4	6949854	35	0.5
4	6949854	36	0.28571428571429
4	6949854	37	0.4
4	6949854	38	0.36363636363636
4	6949854	39	0
4	6949854	40	0.5
4	6949854	41	0.25
4	6949854	42	0.25
4	6949854	43	0.28571428571429
4	6949854	44	0.4
4	6949854	45	0.4
4	6949854	46	0.16666666666667
4	6949854	47	0.25
4	6949854	48	0.25
4	6949854	49	0.46153846153846
4	6949854	50	0.2
4	6949854	51	0
4	6949854	52	0.16666666666667
4	6949854	53	0.28571428571429
4	6949854	54	0
4	6949854	55	0.2
4	6949854	56	0.33333333333333
4	6949854	57	0.375
4	6949854	58	0.375
4	6949854	59	0.25
4	6949854	60	0
4	6949854	61	0.5
4	6949854	62	0.125
4	6949854	63	0.28571428571429
4	6949854	64	0
4	6949854	65	0.28571428571429
4	6949854	66	0.25
4	6949854	67	0.30769230769231
4	6949854	68	0.4
4	6949854	69	0.25
4	6949854	70	0.16666666666667
4	6949854	71	0.25
4	6949854	72	0.16666666666667
4	6949854	73	0.25
4	6949854	74	0
4	6949854	75	0
4	6949854	76	0
vector 5  geant_network.node[5].content_store  hit_node[5]  ETV
5	6949854	1	1
5	6949854	2	0.96078431372549
5	6949854	3	0.85483870967742
5	6949854	4	0.83870967741935
5	6949854	5	0.7843137254902
5	6949854	6	0.7
5	6949854	7	0.55555555555556
5	6949854	8	0.64
5	6949854	9	0.6
5	6949854	10	0.60869565217391
5	6949854	11	0.44444444444444
5	6949854	12	0.30769230769231
5	6949854	13	0.38461538461538
5	6949854	14	0.42105263157895
5	6949854	15	0.5
5	6949854	16	0.42105263157895
5	6949854	17	0.5
5	6949854	18	0.5
5	6949854	19	0.2
5	6949854	20	0.47058823529412
5	6949854	21	0.28571428571429
5	6949854	22	0.5
5	6949854	23	0.28571428571429
5	6949854	24	0.42857142857143
5	6949854	25	0.36363636363636
5	6949854	26	0.33333333333333
5	6949854	27	0.36363636363636
5	6949854	28	0.47368421052632
5	6949854	29	0.16666666666667
5	6949854	30	0.33333333333333
5	6949854	31	0.5
5	6949854	32	0.41176470588235
5	6949854	33	0.25
5	6949854	34	0.63636363636364
5	6949854	35	0
5	6949854	36	0.33333333333333
5	6949854	37	0.33333333333333
5	6949854	38	0.16666666666667
5	6949854	39	0.5
5	6949854	40	0.33333333333333
5	6949854	41	0.2
5	6949854	42	0
5	6949854	43	0.5
5	6949854	44	0.1
5	6949854	45	0.4
5	6949854	46	0
5	6949854	47	0
5	6949854	48	0
5	6949854	49	0.33333333333333
5	6949854	50	0.2
5	6949854	51	0.125
5	6949854	52	0.47058823529412
5	6949854	53	0.5
5	6949854	54	0.25
5	6949854	55	0.33333333333333
5	6949854	56	0.44444444444444
5	6949854	57	0
5	6949854	58	0.25
5	6949854	59	0
5	6949854	60	0
5	6949854	61	0.083333333333333
5	6949854	62	0.33333333333333
5	6949854	63	0.5
5	6949854	64	0
5	6949854	65	0.16666666666667
5	6949854	66	0
5	6949854	67	0
5	6949854	68	0.22222222222222
5	6949854	69	0.2
5	6949854	70	0
5	6949854	71	0.44444444444444
5	6949854	72	0.14285714285714
5	6949854	73	0
5	6949854	74	0.5
5	6949854	75	0
5	6949854	76	0
vector 6  geant_network.node[6].content_store  hit_node[6]  ETV
6	6949854	1	1
6	6949854	2	1
6	6949854	3	0.98412698412698
6	6949854	4	0.96296296296296
6	6949854	5	0.93877551020408
6	6949854	6	0.80769230769231
6	6949854	7	0.86206896551724
6	6949854	8	0.72727272727273
6	6949854	9	0.83333333333333
6	6949854	10	0.9
6	6949854	11	0.80769230769231
6	6949854	12	0.73913043478261
6	6949854	13	0.78947368421053
6	6949854	14	0.625
6	6949854	15	0.83333333333333
6	6949854	16	0.625
6	6949854	17	0.55555555555556
6	6949854	18	0.72222222222222
6	6949854	19	0.6
6	6949854	20	0.6
6	6949854	21	0.5
6	6949854	22	0.28571428571429
6	6949854	23	0.66666666666667
6	6949854	24	0.625
6	6949854	25	0.33333333333333
6	6949854	26	0.6
6	6949854	27	0.27272727272727
6	6949854	28	0.16666666666667
6	6949854	29	0.5
6	6949854	30	0
6	6949854	31	0.57142857142857
6	6949854	32	0.57142857142857
6	6949854	33	0.6
6	6949854	34	0.71428571428571
6	6949854	35	0.83333333333333
6	6949854	36	0.5
6	6949854	37	0.25
6	6949854	38	0.6
6	6949854	39	0.5
6	6949854	40	0
6	6949854	41	0.63636363636364
6	6949854	42	0.5
6	6949854	43	0.38461538461538
6	6949854	44	0.55555555555556
6	6949854	45	0.16666666666667
6	6949854	46	0.57142857142857
6	6949854	47	0.6
6	6949854	48	0.57142857142857
6	6949854	49	0.25
6	6949854	50	0
6	6949854	51	0.5
6	6949854	52	0.5
6	6949854	53	0.5
6	6949854	54	0
6	6949854	55	0.4
6	6949854	56	0.42857142857143
6	6949854	57	0.16666666666667
6	6949854	58	0.25
6	6949854	59	0.33333333333333
6	6949854	60	0
6	6949854	61	0.4
6	6949854	62	0
6	6949854	63	0
6	6949854	64	0.25
6	6949854	65	0.25
6	6949854	66	0
6	6949854	67	0.5
6	6949854	68	0
6	6949854	69	0.25
6	6949854	70	0
6	6949854	71	0.33333333333333
6	6949854	72	0.63636363636364
6	6949854	73	0
6	6949854	74	-nan
6	6949854	75	0
6	6949854	76	0.25
vector 7  geant_network.node[7].content_store  hit_node[7]  ETV
7	6949854	1	-nan
7	6949854	2	-nan
7	6949854	3	-nan
7	6949854	4	-nan
7	6949854	5	-nan
7	6949854	6	0
7	6949854	7	0
7	6949854	8	0
7	6949854	9	0
7	6949854	10	0
7	6949854	11	0
7	6949854	12	0.25
7	6949854	13	0
7	6949854	14	0
7	6949854	15	0.25
7	6949854	16	0.33333333333333
7	6949854	17	0
7	6949854	18	0.33333333333333
7	6949854	19	0
7	6949854	20	0.33333333333333
7	6949854	21	0.5
7	6949854	22	0
7	6949854	23	0
7	6949854	24	-nan
7	6949854	25	-nan
7	6949854	26	0.5
7	6949854	27	0.25
7	6949854	28	0
7	6949854	29	0.625
7	6949854	30	0.33333333333333
7	6949854	31	0
7	6949854	32	0
7	6949854	33	0.25
7	6949854	34	0.33333333333333
7	6949854	35	0.4
7	6949854	36	0.5
7	6949854	37	0.33333333333333
7	6949854	38	0.42857142857143
7	6949854	39	0.4
7	6949854	40	0.4
7	6949854	41	0.14285714285714
7	6949854	42	0
7	6949854	43	0.5
7	6949854	44	0
7	6949854	45	0
7	6949854	46	0
7	6949854	47	0.5
7	6949854	48	0.3
7	6949854	49	0
7	6949854	50	-nan
7	6949854	51	0.5
7	6949854	52	-nan
7	6949854	53	0
7	6949854	54	-nan
7	6949854	55	0
7	6949854	56	0.25
7	6949854	57	0.33333333333333
7	6949854	58	0
7	6949854	59	0.4
7	6949854	60	-nan
7	6949854	61	0
7	6949854	62	0
7	6949854	63	-nan
7	6949854	64	0
7	6949854	65	0.33333333333333
7	6949854	66	0
7	6949854	67	0.22222222222222
7	6949854	68	-nan
7	6949854	69	0
7	6949854	70	0
7	6949854	71	0.5
7	6949854	72	0
7	6949854	73	0
7	6949854	74	-nan
7	6949854	75	0
7	6949854	76	0.5
vector 8  geant_network.node[8].content_store  hit_node[8]  ETV
8	6949854	1	-nan
8	6949854	2	-nan
8	6949854	3	-nan
8	6949854	4	-nan
8	6949854	5	-nan
8	6949854	6	-nan
8	6949854	7	0.5
8	6949854	8	-nan
8	6949854	9	-nan
8	6949854	10	-nan
8	6949854	11	0
8	6949854	12	0.5
8	6949854	13	0.5
8	6949854	14	-nan
8	6949854	15	0.33333333333333
8	6949854	16	0
8	6949854	17	0.16666666666667
8	6949854	18	0.5
8	6949854	19	0.33333333333333
8	6949854	20	0.5
8	6949854	21	0.57142857142857
8	6949854	22	0.5
8	6949854	23	-nan
8	6949854	24	-nan
8	6949854	25	-nan
8	6949854	26	0
8	6949854	27	0
8	6949854	28	0
8	6949854	29	0.5
8	6949854	30	0.33333333333333
8	6949854	31	-nan
8	6949854	32	0.33333333333333
8	6949854	33	0
8	6949854	34	0.33333333333333
8	6949854	35	0
8	6949854	36	0
8	6949854	37	0.5
8	6949854	38	0.71428571428571
8	6949854	39	0.25
8	6949854	40	0.33333333333333
8	6949854	41	0.66666666666667
8	6949854	42	-nan
8	6949854	43	0.54545454545455
8	6949854	44	0.5
8	6949854	45	0.66666666666667
8	6949854	46	0
8	6949854	47	0
8	6949854	48	0
8	6949854	49	0.5
8	6949854	50	-nan
8	6949854	51	0
8	6949854	52	-nan
8	6949854	53	-nan
8	6949854	54	-nan
8	6949854	55	0
8	6949854	56	0
8	6949854	57	0
8	6949854	58	-nan
8	6949854	59	0.2
8	6949854	60	-nan
8	6949854	61	0
8	6949854	62	-nan
8	6949854	63	-nan
8	6949854	64	-nan
8	6949854	65	0
8	6949854	66	0.5
8	6949854	67	0.44444444444444
8	6949854	68	-nan
8	6949854	69	-nan
8	6949854	70	-nan
8	6949854	71	0
8	6949854	72	0.33333333333333
8	6949854	73	-nan
8	6949854	74	-nan
8	6949854	75	-nan
8	6949854	76	0.5
vector 9  geant_network.node[9].content_store  hit_node[9]  ETV
9	6949854	1	1
9	6949854	2	0.94565217391304
9	6949854	3	0.89855072463768
9	6949854	4	0.62068965517241
9	6949854	5	0.66666666666667
9	6949854	6	0.79487179487179
9	6949854	7	0.60714285714286
9	6949854	8	0.41666666666667
9	6949854	9	0.56521739130435
9	6949854	10	0.5
9	6949854	11	0.45454545454545
9	6949854	12	0.57894736842105
9	6949854	13	0.5
9	6949854	14	0.28571428571429
9	6949854	15	0.29411764705882
9	6949854	16	0.21428571428571
9	6949854	17	0.5
9	6949854	18	0.52631578947368
9	6949854	19	0.2
9	6949854	20	0.25
9	6949854	21	0.4
9	6949854	22	0.46153846153846
9	6949854	23	0.38461538461538
9	6949854	24	0.36363636363636
9	6949854	25	0.42857142857143
9	6949854	26	0.38461538461538
9	6949854	27	0.4
9	6949854	28	0.3
9	6949854	29	0.18181818181818
9	6949854	30	0.3
9	6949854	31	0.25
9	6949854	32	0.2
9	6949854	33	0.33333333333333
9	6949854	34	0.36363636363636
9	6949854	35	0
9	6949854	36	0.125
9	6949854	37	0.11111111111111
9	6949854	38	0.33333333333333
9	6949854	39	0.27272727272727
9	6949854	40	0.16666666666667
9	6949854	41	0.11111111111111
9	6949854	42	0
9	6949854	43	0.3
9	6949854	44	0.35714285714286
9	6949854	45	0.1
9	6949854	46	0.41666666666667
9	6949854	47	0.11111111111111
9	6949854	48	0
9	6949854	49	0
9	6949854	50	0
9	6949854	51	0.28571428571429
9	6949854	52	0
9	6949854	53	0.125
9	6949854	54	0
9	6949854	55	0
9	6949854	56	0.14285714285714
9	6949854	57	0
9	6949854	58	0
9	6949854	59	0
9	6949854	60	0
9	6949854	61	0
9	6949854	62	0
9	6949854	63	0
9	6949854	64	0.25
9	6949854	65	0
9	6949854	66	0.4
9	6949854	67	0.33333333333333
9	6949854	68	0
9	6949854	69	0
9	6949854	70	0.14285714285714
9	6949854	71	0.375
9	6949854	72	0.25
9	6949854	73	0.16666666666667
9	6949854	74	0
9	6949854	75	0
9	6949854	76	0.16666666666667
vector 10  geant_network.node[10].content_store  hit_node[10]  ETV
10	6949854	1	1
10	6949854	2	1
10	6949854	3	0.98484848484848
10	6949854	4	1
10	6949854	5	0.98148148148148
10	6949854	6	0.91666666666667
10	6949854	7	0.83870967741935
10	6949854	8	0.97872340425532
10	6949854	9	0.91428571428571
10	6949854	10	0.88235294117647
10	6949854	11	0.86206896551724
10	6949854	12	0.83333333333333
10	6949854	13	0.77272727272727
10	6949854	14	0.73684210526316
10	6949854	15	0.5625
10	6949854	16	0.77272727272727
10	6949854	17	0.64705882352941
10	6949854	18	0.66666666666667
10	6949854	19	0.44444444444444
10	6949854	20	0.57142857142857
10	6949854	21	0.53333333333333
10	6949854	22	0.53846153846154
10	6949854	23	0.22222222222222
10	6949854	24	0.61538461538462
10	6949854	25	0.5
10	6949854	26	0.25
10	6949854	27	0.53846153846154
10	6949854	28	0.73333333333333
10	6949854	29	0.54545454545455
10	6949854	30	0.44444444444444
10	6949854	31	0.4
10	6949854	32	0.71428571428571
10	6949854	33	0.33333333333333
10	6949854	34	0.72727272727273
10	6949854	35	0.57142857142857
10	6949854	36	0
10	6949854	37	0.5
10	6949854	38	0
10	6949854	39	0.78571428571429
10	6949854	40	0.83333333333333
10	6949854	41	0.42857142857143
10	6949854	42	0.5
10	6949854	43	0.25
10	6949854	44	0.44444444444444
10	6949854	45	0.75
10	6949854	46	0.375
10	6949854	47	0.57142857142857
10	6949854	48	0
10	6949854	49	0.2
10	6949854	50	0.5
10	6949854	51	0.4
10	6949854	52	0.5
10	6949854	53	0.28571428571429
10	6949854	54	0.6
10	6949854	55	0
10	6949854	56	0.44444444444444
10	6949854	57	0
10	6949854	58	0.5
10	6949854	59	0.5
10	6949854	60	0.25
10	6949854	61	0
10	6949854	62	0.5
10	6949854	63	0
10	6949854	64	0.66666666666667
10	6949854	65	0.4
10	6949854	66	0.57142857142857
10	6949854	67	0.5
10	6949854	68	0
10	6949854	69	0
10	6949854	70	0.42857142857143
10	6949854	71	0
10	6949854	72	0.5
10	6949854	73	0
10	6949854	74	0
10	6949854	75	0.2
10	6949854	76	0.2
vector 11  geant_network.node[11].content_store  hit_node[11]  ETV
11	6949854	1	1
11	6949854	2	0.99009900990099
11	6949854	3	0.98461538461538
11	6949854	4	0.91304347826087
11	6949854	5	0.90243902439024
11	6949854	6	0.72413793103448
11	6949854	7	0.8125
11	6949854	8	0.65217391304348
11	6949854	9	0.5625
11	6949854	10	0.59090909090909
11	6949854	11	0.76470588235294
11	6949854	12	0.41666666666667
11	6949854	13	0.75
11	6949854	14	0.58823529411765
11	6949854	15	0.77777777777778
11	6949854	16	0.69230769230769
11	6949854	17	0.5
11	6949854	18	0.5
11	6949854	19	0.44444444444444
11	6949854	20	0.4
11	6949854	21	0.375
11	6949854	22	0.33333333333333
11	6949854	23	0.5
11	6949854	24	0.44444444444444
11	6949854	25	0.41666666666667
11	6949854	26	0.5
11	6949854	27	0.4
11	6949854	28	0.25
11	6949854	29	0.4
11	6949854	30	0.6
11	6949854	31	0.16666666666667
11	6949854	32	0.5
11	6949854	33	0.5
11	6949854	34	0
11	6949854	35	0.28571428571429
11	6949854	36	0
11	6949854	37	0
11	6949854	38	0
11	6949854	39	0.2
11	6949854	40	0.33333333333333
11	6949854	41	0
11	6949854	42	0.25
11	6949854	43	0.33333333333333
11	6949854	44	0.33333333333333
11	6949854	45	0
11	6949854	46	0.5
11	6949854	47	0.33333333333333
11	6949854	48	-nan
11	6949854	49	0.25
11	6949854	50	0
11	6949854	51	0.2
11	6949854	52	0.5
11	6949854	53	0
11	6949854	54	0.25
11	6949854	55	0
11	6949854	56	0.5
11	6949854	57	0
11	6949854	58	0
11	6949854	59	0.25
11	6949854	60	0.66666666666667
11	6949854	61	0.5
11	6949854	62	0
11	6949854	63	0
11	6949854	64	0
11	6949854	65	0.35714285714286
11	6949854	66	0.57142857142857
11	6949854	67	0.42857142857143
11	6949854	68	0.66666666666667
11	6949854	69	0
11	6949854	70	0
11	6949854	71	0.57142857142857
11	6949854	72	0
11	6949854	73	0
11	6949854	74	0.25
11	6949854	75	0
11	6949854	76	0.5
vector 12  geant_network.node[12].content_store  hit_node[12]  ETV
12	6949854	1	-nan
12	6949854	2	-nan
12	6949854	3	-nan
12	6949854	4	-nan
12	6949854	5	-nan
12	6949854	6	0.4
12	6949854	7	-nan
12	6949854	8	-nan
12	6949854	9	-nan
12	6949854	10	0.33333333333333
12	6949854	11	0
12	6949854	12	0
12	6949854	13	0.5
12	6949854	14	0.22222222222222
12	6949854	15	0.25
12	6949854	16	0.25
12	6949854	17	-nan
12	6949854	18	0
12	6949854	19	0
12	6949854	20	0.5
12	6949854	21	0
12	6949854	22	0
12	6949854	23	0
12	6949854	24	0.25
12	6949854	25	0
12	6949854	26	0.33333333333333
12	6949854	27	0
12	6949854	28	0.14285714285714
12	6949854	29	0.2
12	6949854	30	0.125
12	6949854	31	0.33333333333333
12	6949854	32	0
12	6949854	33	0
12	6949854	34	0
12	6949854	35	0.2
12	6949854	36	0.22222222222222
12	6949854	37	0.125
12	6949854	38	0
12	6949854	39	0
12	6949854	40	0
12	6949854	41	-nan
12	6949854	42	0
12	6949854	43	0
12	6949854	44	0.14285714285714
12	6949854	45	0
12	6949854	46	0
12	6949854	47	0
12	6949854	48	0
12	6949854	49	0
12	6949854	50	0.125
12	6949854	51	0
12	6949854	52	0
12	6949854	53	0.13333333333333
12	6949854	54	0.3
12	6949854	55	0
12	6949854	56	0
12	6949854	57	0
12	6949854	58	0
12	6949854	59	0.2
12	6949854	60	0
12	6949854	61	0.33333333333333
12	6949854	62	0
12	6949854	63	0.25
12	6949854	64	0
12	6949854	65	0.125
12	6949854	66	0
12	6949854	67	0
12	6949854	68	0
12	6949854	69	0
12	6949854	70	0
12	6949854	71	0
12	6949854	72	0
12	6949854	73	0
12	6949854	74	0
12	6949854	75	0
12	6949854	76	0.16666666666667
vector 13  geant_network.node[13].content_store  hit_node[13]  ETV
13	6949854	1	-nan
13	6949854	2	-nan
13	6949854	3	-nan
13	6949854	4	-nan
13	6949854	5	-nan
13	6949854	6	0.5
13	6949854	7	-nan
13	6949854	8	-nan
13	6949854	9	-nan
13	6949854	10	0
13	6949854	11	-nan
13	6949854	12	0.83333333333333
13	6949854	13	0
13	6949854	14	-nan
13	6949854	15	0
13	6949854	16	-nan
13	6949854	17	-nan
13	6949854	18	-nan
13	6949854	19	-nan
13	6949854	20	-nan
13	6949854	21	-nan
13	6949854	22	-nan
13	6949854	23	0.5
13	6949854	24	-nan
13	6949854	25	-nan
13	6949854	26	0
13	6949854	27	0
13	6949854	28	0.5
13	6949854	29	-nan
13	6949854	30	-nan
13	6949854	31	-nan
13	6949854	32	-nan
13	6949854	33	0.8
13	6949854	34	-nan
13	6949854	35	-nan
13	6949854	36	0.33333333333333
13	6949854	37	0.8
13	6949854	38	0.5
13	6949854	39	-nan
13	6949854	40	-nan
13	6949854	41	-nan
13	6949854	42	-nan
13	6949854	43	-nan
13	6949854	44	0.66666666666667
13	6949854	45	0.66666666666667
13	6949854	46	-nan
13	6949854	47	-nan
13	6949854	48	0.5
13	6949854	49	-nan
13	6949854	50	0
13	6949854	51	-nan
13	6949854	52	0
13	6949854	53	-nan
13	6949854	54	0.5
13	6949854	55	0
13	6949854	56	0.33333333333333
13	6949854	57	-nan
13	6949854	58	0
13	6949854	59	0.75
13	6949854	60	0.66666666666667
13	6949854	61	-nan
13	6949854	62	-nan
13	6949854	63	0.33333333333333
13	6949854	64	0
13	6949854	65	0.5
13	6949854	66	0
13	6949854	67	-nan
13	6949854	68	-nan
13	6949854	69	-nan
13	6949854	70	0
13	6949854	71	-nan
13	6949854	72	0
13	6949854	73	0.5
13	6949854	74	0.75
13	6949854	75	-nan
13	6949854	76	0.2
vector 14  geant_network.node[14].content_store  hit_node[14]  ETV
14	6949854	1	0.99418604651163
14	6949854	2	0.96511627906977
14	6949854	3	0.92063492063492
14	6949854	4	0.75
14	6949854	5	0.84444444444444
14	6949854	6	0.77551020408163
14	6949854	7	0.58333333333333
14	6949854	8	0.60714285714286
14	6949854	9	0.70588235294118
14	6949854	10	0.52631578947368
14	6949854	11	0.65
14	6949854	12	0.64285714285714
14	6949854	13	0.40909090909091
14	6949854	14	0.54166666666667
14	6949854	15	0.57894736842105
14	6949854	16	0.4375
14	6949854	17	0.5
14	6949854	18	0.53333333333333
14	6949854	19	0.18181818181818
14	6949854	20	0.53333333333333
14	6949854	21	0.55555555555556
14	6949854	22	0.47058823529412
14	6949854	23	0.4375
14	6949854	24	0.35714285714286
14	6949854	25	0.46666666666667
14	6949854	26	0.27272727272727
14	6949854	27	0.58823529411765
14	6949854	28	0.5
14	6949854	29	0.22222222222222
14	6949854	30	0.5
14	6949854	31	0.125
14	6949854	32	0.30769230769231
14	6949854	33	0.4
14	6949854	34	0
14	6949854	35	0.5
14	6949854	36	0.53333333333333
14	6949854	37	0.33333333333333
14	6949854	38	0.3
14	6949854	39	0.33333333333333
14	6949854	40	0.5
14	6949854	41	0
14	6949854	42	0.25
14	6949854	43	0.33333333333333
14	6949854	44	0.46153846153846
14	6949854	45	0.28571428571429
14	6949854	46	0.4
14	6949854	47	0.33333333333333
14	6949854	48	0.4
14	6949854	49	0
14	6949854	50	0
14	6949854	51	0.16666666666667
14	6949854	52	0.22222222222222
14	6949854	53	0.25
14	6949854	54	0
14	6949854	55	0.33333333333333
14	6949854	56	0.54545454545455
14	6949854	57	0.2
14	6949854	58	0.30769230769231
14	6949854	59	0.375
14	6949854	60	0.36363636363636
14	6949854	61	0.25
14	6949854	62	0
14	6949854	63	0.42857142857143
14	6949854	64	0.25
14	6949854	65	0.28571428571429
14	6949854	66	0.6
14	6949854	67	0.25
14	6949854	68	0.33333333333333
14	6949854	69	0.375
14	6949854	70	0.5
14	6949854	71	0.42857142857143
14	6949854	72	0.42857142857143
14	6949854	73	0.6
14	6949854	74	0.22222222222222
14	6949854	75	0.25
14	6949854	76	0.4
vector 15  geant_network.node[15].content_store  hit_node[15]  ETV
15	6949854	1	-nan
15	6949854	2	-nan
15	6949854	3	-nan
15	6949854	4	-nan
15	6949854	5	0
15	6949854	6	-nan
15	6949854	7	-nan
15	6949854	8	0.5
15	6949854	9	0.75
15	6949854	10	0
15	6949854	11	0.875
15	6949854	12	0
15	6949854	13	-nan
15	6949854	14	0.42857142857143
15	6949854	15	0.4
15	6949854	16	0.72727272727273
15	6949854	17	0.5
15	6949854	18	0.77777777777778
15	6949854	19	0.6
15	6949854	20	-nan
15	6949854	21	0.66666666666667
15	6949854	22	0.75
15	6949854	23	0.5
15	6949854	24	0.33333333333333
15	6949854	25	0.5
15	6949854	26	0.86666666666667
15	6949854	27	0.66666666666667
15	6949854	28	0.75
15	6949854	29	0.78571428571429
15	6949854	30	0.73333333333333
15	6949854	31	0.6
15	6949854	32	0.33333333333333
15	6949854	33	-nan
15	6949854	34	0.5
15	6949854	35	0.75
15	6949854	36	0.71428571428571
15	6949854	37	0.5
15	6949854	38	0.8125
15	6949854	39	0.75
15	6949854	40	0
15	6949854	41	-nan
15	6949854	42	0.375
15	6949854	43	0.33333333333333
15	6949854	44	0.66666666666667
15	6949854	45	0.25
15	6949854	46	0.83333333333333
15	6949854	47	0.46666666666667
15	6949854	48	0
15	6949854	49	0
15	6949854	50	0
15	6949854	51	0
15	6949854	52	0
15	6949854	53	0
15	6949854	54	0
15	6949854	55	-nan
15	6949854	56	0.4
15	6949854	57	0.33333333333333
15	6949854	58	0
15	6949854	59	1
15	6949854	60	0.375
15	6949854	61	0
15	6949854	62	0
15	6949854	63	0.33333333333333
15	6949854	64	0.33333333333333
15	6949854	65	-nan
15	6949854	66	0
15	6949854	67	0.33333333333333
15	6949854	68	0.57142857142857
15	6949854	69	0.625
15	6949854	70	0.5
15	6949854	71	-nan
15	6949854	72	0.42857142857143
15	6949854	73	0
15	6949854	74	0
15	6949854	75	0.53333333333333
15	6949854	76	0
vector 16  geant_network.node[16].content_store  hit_node[16]  ETV
16	6949854	1	-nan
16	6949854	2	-nan
16	6949854	3	-nan
16	6949854	4	-nan
16	6949854	5	-nan
16	6949854	6	-nan
16	6949854	7	-nan
16	6949854	8	-nan
16	6949854	9	-nan
16	6949854	10	-nan
16	6949854	11	-nan
16	6949854	12	-nan
16	6949854	13	-nan
16	6949854	14	-nan
16	6949854	15	-nan
16	6949854	16	0.5
16	6949854	17	-nan
16	6949854	18	-nan
16	6949854	19	-nan
16	6949854	20	-nan
16	6949854	21	-nan
16	6949854	22	-nan
16	6949854	23	-nan
16	6949854	24	-nan
16	6949854	25	-nan
16	6949854	26	-nan
16	6949854	27	-nan
16	6949854	28	-nan
16	6949854	29	-nan
16	6949854	30	-nan
16	6949854	31	-nan
16	6949854	32	-nan
16	6949854	33	-nan
16	6949854	34	-nan
16	6949854	35	-nan
16	6949854	36	0.77777777777778
16	6949854	37	0.66666666666667
16	6949854	38	-nan
16	6949854	39	-nan
16	6949854	40	-nan
16	6949854	41	-nan
16	6949854	42	-nan
16	6949854	43	-nan
16	6949854	44	0.8
16	6949854	45	0
16	6949854	46	-nan
16	6949854	47	-nan
16	6949854	48	-nan
16	6949854	49	-nan
16	6949854	50	-nan
16	6949854	51	-nan
16	6949854	52	-nan
16	6949854	53	-nan
16	6949854	54	-nan
16	6949854	55	0.2
16	6949854	56	0.66666666666667
16	6949854	57	-nan
16	6949854	58	0.81818181818182
16	6949854	59	-nan
16	6949854	60	-nan
16	6949854	61	-nan
16	6949854	62	-nan
16	6949854	63	0.7
16	6949854	64	0.88235294117647
16	6949854	65	-nan
16	6949854	66	-nan
16	6949854	67	-nan
16	6949854	68	-nan
16	6949854	69	-nan
16	6949854	70	-nan
16	6949854	71	-nan
16	6949854	72	-nan
16	6949854	73	-nan
16	6949854	74	-nan
16	6949854	75	-nan
16	6949854	76	0.72727272727273
vector 17  geant_network.node[17].content_store  hit_node[17]  ETV
17	6949854	1	1
17	6949854	2	1
17	6949854	3	0.98360655737705
17	6949854	4	0.86842105263158
17	6949854	5	0.92682926829268
17	6949854	6	0.90625
17	6949854	7	0.84615384615385
17	6949854	8	0.84
17	6949854	9	0.7
17	6949854	10	0.66666666666667
17	6949854	11	0.58823529411765
17	6949854	12	0.5625
17	6949854	13	0.64285714285714
17	6949854	14	0.85
17	6949854	15	0.61538461538462
17	6949854	16	0.46153846153846
17	6949854	17	0.66666666666667
17	6949854	18	0.72222222222222
17	6949854	19	0.4
17	6949854	20	0.82352941176471
17	6949854	21	0.44444444444444
17	6949854	22	0.33333333333333
17	6949854	23	0.33333333333333
17	6949854	24	0.55555555555556
17	6949854	25	0.75
17	6949854	26	0.54545454545455
17	6949854	27	0.64285714285714
17	6949854	28	0.625
17	6949854	29	0.5
17	6949854	30	0.5
17	6949854	31	0.4
17	6949854	32	0.57142857142857
17	6949854	33	0
17	6949854	34	0.75
17	6949854	35	0.28571428571429
17	6949854	36	0.4
17	6949854	37	0.66666666666667
17	6949854	38	0.66666666666667
17	6949854	39	0.4
17	6949854	40	0.61538461538462
17	6949854	41	0
17	6949854	42	0.58333333333333
17	6949854	43	0.28571428571429
17	6949854	44	0.25