version 2
run General-0-20150520-12:02:22-24901
attr D lce
attr F nrr
attr R lru
attr a 1
attr configname General
attr datetime 20150520-12:02:22
attr experiment General
attr inifile omnetpp.ini
attr iterationvars "$net=geant, $rep=0, $a=1, $F=nrr, $ttl=1000, $D=lce, $R=lru"
attr iterationvars2 "$net=geant, $rep=0, $a=1, $F=nrr, $ttl=1000, $D=lce, $R=lru, $repetition=0"
attr measurement "$net=geant, $rep=0, $a=1, $F=nrr, $ttl=1000, $D=lce, $R=lru"
attr net geant
attr network networks.${net=geant}_network
attr processid 24901
attr rep 0
attr repetition 0
attr replication #0
attr resultdir results
attr runnumber 0
attr seedset 0
attr ttl 1000

vector 0  geant_network.node[0].content_store  hit_node[0]  ETV
0	6949593	1	1
0	6949593	2	0.98863636363636
0	6949593	3	0.98484848484848
0	6949593	4	0.90384615384615
0	6949593	5	0.65384615384615
0	6949593	6	0.81481481481481
0	6949593	7	0.75
0	6949593	8	0.76923076923077
0	6949593	9	0.63636363636364
0	6949593	10	0.66666666666667
0	6949593	11	0.36363636363636
0	6949593	12	0.36363636363636
0	6949593	13	0.5
0	6949593	14	0.46666666666667
0	6949593	15	0.52631578947368
0	6949593	16	0.33333333333333
0	6949593	17	0.44444444444444
0	6949593	18	0.47058823529412
0	6949593	19	0.2
0	6949593	20	0.5
0	6949593	21	0.45454545454545
0	6949593	22	0.42857142857143
0	6949593	23	0.375
0	6949593	24	0
0	6949593	25	0.28571428571429
0	6949593	26	0.2
0	6949593	27	0.2
0	6949593	28	0.42857142857143
0	6949593	29	0.33333333333333
0	6949593	30	0.5
0	6949593	31	0.61538461538462
0	6949593	32	0.33333333333333
0	6949593	33	0.33333333333333
0	6949593	34	0.33333333333333
0	6949593	35	0.375
0	6949593	36	0.4
0	6949593	37	0.4
0	6949593	38	0.16666666666667
0	6949593	39	0.4
0	6949593	40	0.16666666666667
0	6949593	41	0.375
0	6949593	42	0.25
0	6949593	43	0
0	6949593	44	0.28571428571429
0	6949593	45	0.33333333333333
0	6949593	46	0.2
0	6949593	47	0
0	6949593	48	0.5
0	6949593	49	0.22222222222222
0	6949593	50	0.3
0	6949593	51	0
0	6949593	52	0
0	6949593	53	0
0	6949593	54	0.25
0	6949593	55	0.16666666666667
0	6949593	56	0.25
0	6949593	57	0
0	6949593	58	0
0	6949593	59	0
0	6949593	60	-nan
0	6949593	61	0.5
0	6949593	62	0
0	6949593	63	0
0	6949593	64	0
0	6949593	65	-nan
0	6949593	66	0
0	6949593	67	0
0	6949593	68	0.58333333333333
0	6949593	69	0.33333333333333
0	6949593	70	0.3
0	6949593	71	0.5
0	6949593	72	0
0	6949593	73	0.36363636363636
0	6949593	74	0
0	6949593	75	-nan
0	6949593	76	0
vector 1  geant_network.node[1].content_store  hit_node[1]  ETV
1	6949593	1	-nan
1	6949593	2	-nan
1	6949593	3	-nan
1	6949593	4	-nan
1	6949593	5	-nan
1	6949593	6	0.5
1	6949593	7	-nan
1	6949593	8	-nan
1	6949593	9	-nan
1	6949593	10	-nan
1	6949593	11	0
1	6949593	12	0
1	6949593	13	0.25
1	6949593	14	0.25
1	6949593	15	0.5
1	6949593	16	0
1	6949593	17	0.33333333333333
1	6949593	18	0
1	6949593	19	-nan
1	6949593	20	0.25
1	6949593	21	0
1	6949593	22	0.5
1	6949593	23	0
1	6949593	24	0.33333333333333
1	6949593	25	0
1	6949593	26	0
1	6949593	27	0.33333333333333
1	6949593	28	0
1	6949593	29	0
1	6949593	30	0
1	6949593	31	0
1	6949593	32	0
1	6949593	33	0.66666666666667
1	6949593	34	0
1	6949593	35	0
1	6949593	36	0
1	6949593	37	0.5
1	6949593	38	-nan
1	6949593	39	-nan
1	6949593	40	0.5
1	6949593	41	0
1	6949593	42	0
1	6949593	43	0.4
1	6949593	44	0.5
1	6949593	45	0.25
1	6949593	46	0.25
1	6949593	47	0.5
1	6949593	48	0
1	6949593	49	0
1	6949593	50	0.2
1	6949593	51	0.14285714285714
1	6949593	52	0.33333333333333
1	6949593	53	-nan
1	6949593	54	0
1	6949593	55	-nan
1	6949593	56	-nan
1	6949593	57	-nan
1	6949593	58	-nan
1	6949593	59	-nan
1	6949593	60	-nan
1	6949593	61	0.25
1	6949593	62	0
1	6949593	63	0.33333333333333
1	6949593	64	-nan
1	6949593	65	-nan
1	6949593	66	0
1	6949593	67	-nan
1	6949593	68	0
1	6949593	69	0.44444444444444
1	6949593	70	0.25
1	6949593	71	0
1	6949593	72	-nan
1	6949593	73	0.14285714285714
1	6949593	74	0
1	6949593	75	-nan
1	6949593	76	0
vector 2  geant_network.node[2].content_store  hit_node[2]  ETV
2	6949593	1	-nan
2	6949593	2	-nan
2	6949593	3	-nan
2	6949593	4	-nan
2	6949593	5	-nan
2	6949593	6	-nan
2	6949593	7	-nan
2	6949593	8	-nan
2	6949593	9	-nan
2	6949593	10	-nan
2	6949593	11	-nan
2	6949593	12	-nan
2	6949593	13	-nan
2	6949593	14	-nan
2	6949593	15	-nan
2	6949593	16	-nan
2	6949593	17	-nan
2	6949593	18	-nan
2	6949593	19	-nan
2	6949593	20	-nan
2	6949593	21	-nan
2	6949593	22	-nan
2	6949593	23	-nan
2	6949593	24	-nan
2	6949593	25	-nan
2	6949593	26	-nan
2	6949593	27	-nan
2	6949593	28	-nan
2	6949593	29	-nan
2	6949593	30	-nan
2	6949593	31	-nan
2	6949593	32	-nan
2	6949593	33	-nan
2	6949593	34	-nan
2	6949593	35	-nan
2	6949593	36	-nan
2	6949593	37	-nan
2	6949593	38	-nan
2	6949593	39	-nan
2	6949593	40	-nan
2	6949593	41	-nan
2	6949593	42	-nan
2	6949593	43	-nan
2	6949593	44	-nan
2	6949593	45	-nan
2	6949593	46	-nan
2	6949593	47	-nan
2	6949593	48	-nan
2	6949593	49	-nan
2	6949593	50	-nan
2	6949593	51	-nan
2	6949593	52	-nan
2	6949593	53	-nan
2	6949593	54	-nan
2	6949593	55	-nan
2	6949593	56	-nan
2	6949593	57	-nan
2	6949593	58	-nan
2	6949593	59	-nan
2	6949593	60	-nan
2	6949593	61	-nan
2	6949593	62	-nan
2	6949593	63	-nan
2	6949593	64	-nan
2	6949593	65	-nan
2	6949593	66	-nan
2	6949593	67	-nan
2	6949593	68	-nan
2	6949593	69	-nan
2	6949593	70	-nan
2	6949593	71	-nan
2	6949593	72	-nan
2	6949593	73	-nan
2	6949593	74	-nan
2	6949593	75	-nan
2	6949593	76	-nan
vector 3  geant_network.node[3].content_store  hit_node[3]  ETV
3	6949593	1	-nan
3	6949593	2	-nan
3	6949593	3	-nan
3	6949593	4	-nan
3	6949593	5	-nan
3	6949593	6	0.66666666666667
3	6949593	7	-nan
3	6949593	8	-nan
3	6949593	9	-nan
3	6949593	10	-nan
3	6949593	11	-nan
3	6949593	12	-nan
3	6949593	13	0
3	6949593	14	0.5
3	6949593	15	0.57142857142857
3	6949593	16	-nan
3	6949593	17	-nan
3	6949593	18	0.5
3	6949593	19	0
3	6949593	20	0.25
3	6949593	21	0.5
3	6949593	22	-nan
3	6949593	23	0.25
3	6949593	24	0.22222222222222
3	6949593	25	0.5
3	6949593	26	0
3	6949593	27	0.25
3	6949593	28	0.28571428571429
3	6949593	29	0
3	6949593	30	0
3	6949593	31	0.5
3	6949593	32	0.4
3	6949593	33	0
3	6949593	34	0
3	6949593	35	0
3	6949593	36	-nan
3	6949593	37	0
3	6949593	38	0
3	6949593	39	0
3	6949593	40	0.5
3	6949593	41	0
3	6949593	42	1
3	6949593	43	0.25
3	6949593	44	0.2
3	6949593	45	0.28571428571429
3	6949593	46	0
3	6949593	47	0.4
3	6949593	48	0.33333333333333
3	6949593	49	0
3	6949593	50	0.33333333333333
3	6949593	51	0.2
3	6949593	52	0.4
3	6949593	53	0.36363636363636
3	6949593	54	0.75
3	6949593	55	0.25
3	6949593	56	0
3	6949593	57	-nan
3	6949593	58	0
3	6949593	59	0
3	6949593	60	0
3	6949593	61	0.16666666666667
3	6949593	62	0.33333333333333
3	6949593	63	0.5
3	6949593	64	0
3	6949593	65	0
3	6949593	66	0.25
3	6949593	67	0
3	6949593	68	0.2
3	6949593	69	0.4
3	6949593	70	0.28571428571429
3	6949593	71	0.4
3	6949593	72	0
3	6949593	73	0.22222222222222
3	6949593	74	0
3	6949593	75	-nan
3	6949593	76	0.33333333333333
vector 4  geant_network.node[4].content_store  hit_node[4]  ETV
4	6949593	1	1
4	6949593	2	0.90361445783133
4	6949593	3	0.88333333333333
4	6949593	4	0.89795918367347
4	6949593	5	0.61290322580645
4	6949593	6	0.6
4	6949593	7	0.625
4	6949593	8	0.61538461538462
4	6949593	9	0.63888888888889
4	6949593	10	0.7037037037037
4	6949593	11	0.58333333333333
4	6949593	12	0.4
4	6949593	13	0.36363636363636
4	6949593	14	0.52173913043478
4	6949593	15	0.55
4	6949593	16	0.5
4	6949593	17	0.38461538461538
4	6949593	18	0.25
4	6949593	19	0.5
4	6949593	20	0.45454545454545
4	6949593	21	0.4
4	6949593	22	0.28571428571429
4	6949593	23	0.41666666666667
4	6949593	24	0.61904761904762
4	6949593	25	0.375
4	6949593	26	0.5
4	6949593	27	0.63636363636364
4	6949593	28	0.54545454545455
4	6949593	29	0.38461538461538
4	6949593	30	0.53846153846154
4	6949593	31	0.3
4	6949593	32	0.375
4	6949593	33	0.53333333333333
4	6949593	34	0.11111111111111
4	6949593	35	0.42857142857143
4	6949593	36	0.25
4	6949593	37	0.3
4	6949593	38	0.5
4	6949593	39	0
4	6949593	40	0.5
4	6949593	41	0.3
4	6949593	42	0
4	6949593	43	0.375
4	6949593	44	0.4
4	6949593	45	0.58333333333333
4	6949593	46	0.16666666666667
4	6949593	47	0.14285714285714
4	6949593	48	0
4	6949593	49	0.41666666666667
4	6949593	50	0.2
4	6949593	51	0.25
4	6949593	52	0.16666666666667
4	6949593	53	0.125
4	6949593	54	0
4	6949593	55	0.2
4	6949593	56	0.4
4	6949593	57	0.4
4	6949593	58	0.42857142857143
4	6949593	59	0.14285714285714
4	6949593	60	0
4	6949593	61	0
4	6949593	62	0.14285714285714
4	6949593	63	0
4	6949593	64	0.2
4	6949593	65	0.33333333333333
4	6949593	66	0
4	6949593	67	0.2
4	6949593	68	0.4
4	6949593	69	0
4	6949593	70	0.42857142857143
4	6949593	71	0.375
4	6949593	72	0.25
4	6949593	73	0.25
4	6949593	74	0
4	6949593	75	0
4	6949593	76	0
vector 5  geant_network.node[5].content_store  hit_node[5]  ETV
5	6949593	1	1
5	6949593	2	0.96116504854369
5	6949593	3	0.87096774193548
5	6949593	4	0.87096774193548
5	6949593	5	0.81632653061224
5	6949593	6	0.6
5	6949593	7	0.7
5	6949593	8	0.61538461538462
5	6949593	9	0.60869565217391
5	6949593	10	0.57142857142857
5	6949593	11	0.25
5	6949593	12	0.33333333333333
5	6949593	13	0.35714285714286
5	6949593	14	0.41176470588235
5	6949593	15	0.5
5	6949593	16	0.38888888888889
5	6949593	17	0.38461538461538
5	6949593	18	0.59090909090909
5	6949593	19	0
5	6949593	20	0.4
5	6949593	21	0.25
5	6949593	22	0.55555555555556
5	6949593	23	0.4
5	6949593	24	0.46153846153846
5	6949593	25	0.25
5	6949593	26	0.28571428571429
5	6949593	27	0.45454545454545
5	6949593	28	0.47368421052632
5	6949593	29	0.2
5	6949593	30	0.33333333333333
5	6949593	31	0.44444444444444
5	6949593	32	0.35714285714286
5	6949593	33	0.25
5	6949593	34	0.55555555555556
5	6949593	35	0
5	6949593	36	0.4
5	6949593	37	0.33333333333333
5	6949593	38	0.16666666666667
5	6949593	39	0.5
5	6949593	40	0.25
5	6949593	41	0.2
5	6949593	42	0
5	6949593	43	0.55555555555556
5	6949593	44	0.27272727272727
5	6949593	45	0.2
5	6949593	46	0
5	6949593	47	0.125
5	6949593	48	0.14285714285714
5	6949593	49	0
5	6949593	50	0.2
5	6949593	51	0.16666666666667
5	6949593	52	0.375
5	6949593	53	0.5
5	6949593	54	0.25
5	6949593	55	0.25
5	6949593	56	0.5
5	6949593	57	0
5	6949593	58	0.2
5	6949593	59	0
5	6949593	60	0
5	6949593	61	0.16666666666667
5	6949593	62	0.33333333333333
5	6949593	63	0.4
5	6949593	64	0
5	6949593	65	0.25
5	6949593	66	0
5	6949593	67	0
5	6949593	68	0.2
5	6949593	69	0.2
5	6949593	70	0
5	6949593	71	0.4
5	6949593	72	0.14285714285714
5	6949593	73	0.5
5	6949593	74	0.5
5	6949593	75	0
5	6949593	76	0
vector 6  geant_network.node[6].content_store  hit_node[6]  ETV
6	6949593	1	1
6	6949593	2	1
6	6949593	3	0.98387096774194
6	6949593	4	0.96078431372549
6	6949593	5	0.93617021276596
6	6949593	6	0.78260869565217
6	6949593	7	0.8
6	6949593	8	0.72727272727273
6	6949593	9	0.83333333333333
6	6949593	10	0.89655172413793
6	6949593	11	0.82142857142857
6	6949593	12	0.73913043478261
6	6949593	13	0.78947368421053
6	6949593	14	0.72222222222222
6	6949593	15	0.76470588235294
6	6949593	16	0.66666666666667
6	6949593	17	0.55555555555556
6	6949593	18	0.64705882352941
6	6949593	19	0.25
6	6949593	20	0.55555555555556
6	6949593	21	0.5
6	6949593	22	0.28571428571429
6	6949593	23	0.64285714285714
6	6949593	24	0.5
6	6949593	25	0.33333333333333
6	6949593	26	0.6
6	6949593	27	0.27272727272727
6	6949593	28	0.16666666666667
6	6949593	29	0.33333333333333
6	6949593	30	0
6	6949593	31	0.625
6	6949593	32	0.5
6	6949593	33	0.6
6	6949593	34	0.71428571428571
6	6949593	35	0.8
6	6949593	36	0.42857142857143
6	6949593	37	0.25
6	6949593	38	0.55555555555556
6	6949593	39	0.54545454545455
6	6949593	40	0
6	6949593	41	0.54545454545455
6	6949593	42	0.5
6	6949593	43	0.38461538461538
6	6949593	44	0.375
6	6949593	45	0.28571428571429
6	6949593	46	0.57142857142857
6	6949593	47	0.6
6	6949593	48	0.71428571428571
6	6949593	49	0
6	6949593	50	0
6	6949593	51	0.5
6	6949593	52	0.5
6	6949593	53	0.4
6	6949593	54	0
6	6949593	55	0.4
6	6949593	56	0.42857142857143
6	6949593	57	0.16666666666667
6	6949593	58	0
6	6949593	59	0.33333333333333
6	6949593	60	0
6	6949593	61	0.25
6	6949593	62	0
6	6949593	63	0.33333333333333
6	6949593	64	0.25
6	6949593	65	0.25
6	6949593	66	0
6	6949593	67	0.5
6	6949593	68	0
6	6949593	69	0
6	6949593	70	0
6	6949593	71	0
6	6949593	72	0.5
6	6949593	73	0
6	6949593	74	-nan
6	6949593	75	0
6	6949593	76	0.4
vector 7  geant_network.node[7].content_store  hit_node[7]  ETV
7	6949593	1	-nan
7	6949593	2	-nan
7	6949593	3	-nan
7	6949593	4	-nan
7	6949593	5	-nan
7	6949593	6	0
7	6949593	7	0.6
7	6949593	8	0
7	6949593	9	0
7	6949593	10	0
7	6949593	11	0.25
7	6949593	12	0.16666666666667
7	6949593	13	0.33333333333333
7	6949593	14	0.4
7	6949593	15	0.33333333333333
7	6949593	16	0.25
7	6949593	17	0.5
7	6949593	18	0.6
7	6949593	19	0.6
7	6949593	20	0
7	6949593	21	0.57142857142857
7	6949593	22	0
7	6949593	23	0
7	6949593	24	0
7	6949593	25	0
7	6949593	26	0.5
7	6949593	27	0.2
7	6949593	28	0
7	6949593	29	0.5
7	6949593	30	0
7	6949593	31	0
7	6949593	32	0.25
7	6949593	33	0.25
7	6949593	34	0.41666666666667
7	6949593	35	0.33333333333333
7	6949593	36	0.33333333333333
7	6949593	37	0.33333333333333
7	6949593	38	0.5
7	6949593	39	0.4
7	6949593	40	0.66666666666667
7	6949593	41	0.33333333333333
7	6949593	42	0
7	6949593	43	0
7	6949593	44	0.33333333333333
7	6949593	45	0
7	6949593	46	0.2
7	6949593	47	0.5
7	6949593	48	0.3
7	6949593	49	0.16666666666667
7	6949593	50	-nan
7	6949593	51	0
7	6949593	52	-nan
7	6949593	53	-nan
7	6949593	54	-nan
7	6949593	55	0
7	6949593	56	0
7	6949593	57	0.27272727272727
7	6949593	58	-nan
7	6949593	59	0.4
7	6949593	60	-nan
7	6949593	61	-nan
7	6949593	62	0
7	6949593	63	0
7	6949593	64	0
7	6949593	65	0
7	6949593	66	-nan
7	6949593	67	0.16666666666667
7	6949593	68	-nan
7	6949593	69	-nan
7	6949593	70	0
7	6949593	71	0
7	6949593	72	0.14285714285714
7	6949593	73	0
7	6949593	74	-nan
7	6949593	75	0
7	6949593	76	0.25
vector 8  geant_network.node[8].content_store  hit_node[8]  ETV
8	6949593	1	-nan
8	6949593	2	-nan
8	6949593	3	-nan
8	6949593	4	-nan
8	6949593	5	-nan
8	6949593	6	0
8	6949593	7	-nan
8	6949593	8	-nan
8	6949593	9	-nan
8	6949593	10	-nan
8	6949593	11	0.5
8	6949593	12	0.83333333333333
8	6949593	13	0.33333333333333
8	6949593	14	-nan
8	6949593	15	0
8	6949593	16	0.33333333333333
8	6949593	17	0.33333333333333
8	6949593	18	0.33333333333333
8	6949593	19	0.5
8	6949593	20	-nan
8	6949593	21	0.5
8	6949593	22	0.4
8	6949593	23	0
8	6949593	24	-nan
8	6949593	25	-nan
8	6949593	26	0
8	6949593	27	0
8	6949593	28	0
8	6949593	29	0.25
8	6949593	30	0
8	6949593	31	-nan
8	6949593	32	0.33333333333333
8	6949593	33	0
8	6949593	34	0.5
8	6949593	35	0
8	6949593	36	0
8	6949593	37	0.5
8	6949593	38	0.25
8	6949593	39	0.25
8	6949593	40	0
8	6949593	41	0.66666666666667
8	6949593	42	-nan
8	6949593	43	0.42857142857143
8	6949593	44	0
8	6949593	45	0.66666666666667
8	6949593	46	0
8	6949593	47	0.5
8	6949593	48	0
8	6949593	49	0.66666666666667
8	6949593	50	-nan
8	6949593	51	0
8	6949593	52	-nan
8	6949593	53	-nan
8	6949593	54	-nan
8	6949593	55	0
8	6949593	56	0
8	6949593	57	0
8	6949593	58	-nan
8	6949593	59	0.33333333333333
8	6949593	60	-nan
8	6949593	61	-nan
8	6949593	62	0
8	6949593	63	0.5
8	6949593	64	-nan
8	6949593	65	-nan
8	6949593	66	-nan
8	6949593	67	0.375
8	6949593	68	-nan
8	6949593	69	-nan
8	6949593	70	-nan
8	6949593	71	0.33333333333333
8	6949593	72	0.66666666666667
8	6949593	73	-nan
8	6949593	74	-nan
8	6949593	75	-nan
8	6949593	76	0
vector 9  geant_network.node[9].content_store  hit_node[9]  ETV
9	6949593	1	1
9	6949593	2	0.94623655913978
9	6949593	3	0.89855072463768
9	6949593	4	0.62068965517241
9	6949593	5	0.66666666666667
9	6949593	6	0.79487179487179
9	6949593	7	0.64285714285714
9	6949593	8	0.41666666666667
9	6949593	9	0.5
9	6949593	10	0.5
9	6949593	11	0.45454545454545
9	6949593	12	0.55555555555556
9	6949593	13	0.5
9	6949593	14	0.16666666666667
9	6949593	15	0.29411764705882
9	6949593	16	0.33333333333333
9	6949593	17	0.5
9	6949593	18	0.52631578947368
9	6949593	19	0.11111111111111
9	6949593	20	0.14285714285714
9	6949593	21	0.35714285714286
9	6949593	22	0.41666666666667
9	6949593	23	0.33333333333333
9	6949593	24	0.5
9	6949593	25	0.42857142857143
9	6949593	26	0.38461538461538
9	6949593	27	0.4
9	6949593	28	0.3
9	6949593	29	0.27272727272727
9	6949593	30	0.36363636363636
9	6949593	31	0.25
9	6949593	32	0.2
9	6949593	33	0.4
9	6949593	34	0.36363636363636
9	6949593	35	0
9	6949593	36	0.125
9	6949593	37	0.2
9	6949593	38	0.375
9	6949593	39	0.27272727272727
9	6949593	40	0.16666666666667
9	6949593	41	0.11111111111111
9	6949593	42	0
9	6949593	43	0.33333333333333
9	6949593	44	0.30769230769231
9	6949593	45	0.18181818181818
9	6949593	46	0.46666666666667
9	6949593	47	0.11111111111111
9	6949593	48	0
9	6949593	49	0
9	6949593	50	0
9	6949593	51	0.28571428571429
9	6949593	52	0
9	6949593	53	0.125
9	6949593	54	0
9	6949593	55	0
9	6949593	56	0.14285714285714
9	6949593	57	0
9	6949593	58	0
9	6949593	59	0.2
9	6949593	60	0
9	6949593	61	0
9	6949593	62	0.2
9	6949593	63	0
9	6949593	64	0
9	6949593	65	0
9	6949593	66	0.25
9	6949593	67	0.33333333333333
9	6949593	68	0
9	6949593	69	0
9	6949593	70	0.14285714285714
9	6949593	71	0.28571428571429
9	6949593	72	0.25
9	6949593	73	0.16666666666667
9	6949593	74	0
9	6949593	75	0
9	6949593	76	0
vector 10  geant_network.node[10].content_store  hit_node[10]  ETV
10	6949593	1	1
10	6949593	2	0.98924731182796
10	6949593	3	0.98484848484848
10	6949593	4	1
10	6949593	5	0.98148148148148
10	6949593	6	0.91836734693878
10	6949593	7	0.83870967741935
10	6949593	8	0.97872340425532
10	6949593	9	0.91666666666667
10	6949593	10	0.88235294117647
10	6949593	11	0.85185185185185
10	6949593	12	0.83333333333333
10	6949593	13	0.77272727272727
10	6949593	14	0.73684210526316
10	6949593	15	0.57894736842105
10	6949593	16	0.71428571428571
10	6949593	17	0.64705882352941
10	6949593	18	0.66666666666667
10	6949593	19	0.375
10	6949593	20	0.625
10	6949593	21	0.5625
10	6949593	22	0.64285714285714
10	6949593	23	0.22222222222222
10	6949593	24	0.63636363636364
10	6949593	25	0.5
10	6949593	26	0.25
10	6949593	27	0.53846153846154
10	6949593	28	0.6875
10	6949593	29	0.6
10	6949593	30	0.44444444444444
10	6949593	31	0.4
10	6949593	32	0.71428571428571
10	6949593	33	0.28571428571429
10	6949593	34	0.66666666666667
10	6949593	35	0.71428571428571
10	6949593	36	0
10	6949593	37	0.5
10	6949593	38	0
10	6949593	39	0.78571428571429
10	6949593	40	0.83333333333333
10	6949593	41	0.42857142857143
10	6949593	42	0.5
10	6949593	43	0.14285714285714
10	6949593	44	0.5
10	6949593	45	0.63636363636364
10	6949593	46	0.375
10	6949593	47	0.57142857142857
10	6949593	48	0
10	6949593	49	0.2
10	6949593	50	0.5
10	6949593	51	0.4
10	6949593	52	0.5
10	6949593	53	0.28571428571429
10	6949593	54	0.6
10	6949593	55	0
10	6949593	56	0.44444444444444
10	6949593	57	0
10	6949593	58	0.5
10	6949593	59	0.4
10	6949593	60	0.25
10	6949593	61	0
10	6949593	62	0.5
10	6949593	63	0
10	6949593	64	0.75
10	6949593	65	0.25
10	6949593	66	0.5
10	6949593	67	0.42857142857143
10	6949593	68	0
10	6949593	69	0
10	6949593	70	0.42857142857143
10	6949593	71	0
10	6949593	72	0.5
10	6949593	73	0
10	6949593	74	0
10	6949593	75	0
10	6949593	76	0.2
vector 11  geant_network.node[11].content_store  hit_node[11]  ETV
11	6949593	1	1
11	6949593	2	0.99009900990099
11	6949593	3	0.98461538461538
11	6949593	4	0.91304347826087
11	6949593	5	0.90243902439024
11	6949593	6	0.72413793103448
11	6949593	7	0.80645161290323
11	6949593	8	0.65217391304348
11	6949593	9	0.58823529411765
11	6949593	10	0.59090909090909
11	6949593	11	0.76470588235294
11	6949593	12	0.46153846153846
11	6949593	13	0.75
11	6949593	14	0.72222222222222
11	6949593	15	0.78947368421053
11	6949593	16	0.66666666666667
11	6949593	17	0.5
11	6949593	18	0.5
11	6949593	19	0.44444444444444
11	6949593	20	0.45454545454545
11	6949593	21	0.375
11	6949593	22	0.33333333333333
11	6949593	23	0.5
11	6949593	24	0.28571428571429
11	6949593	25	0.36363636363636
11	6949593	26	0.5
11	6949593	27	0.33333333333333
11	6949593	28	0.4
11	6949593	29	0.25
11	6949593	30	0.57142857142857
11	6949593	31	0.16666666666667
11	6949593	32	0.5
11	6949593	33	0.5
11	6949593	34	0
11	6949593	35	0.16666666666667
11	6949593	36	0
11	6949593	37	0
11	6949593	38	0
11	6949593	39	0.2
11	6949593	40	0.33333333333333
11	6949593	41	0
11	6949593	42	0.25
11	6949593	43	0.33333333333333
11	6949593	44	0.5
11	6949593	45	0
11	6949593	46	0.28571428571429
11	6949593	47	0.33333333333333
11	6949593	48	-nan
11	6949593	49	0
11	6949593	50	0
11	6949593	51	0.2
11	6949593	52	0.5
11	6949593	53	0
11	6949593	54	0.25
11	6949593	55	0
11	6949593	56	0.5
11	6949593	57	0
11	6949593	58	0
11	6949593	59	0.25
11	6949593	60	0.66666666666667
11	6949593	61	0.5
11	6949593	62	0
11	6949593	63	0
11	6949593	64	0
11	6949593	65	0.4
11	6949593	66	0.63636363636364
11	6949593	67	0.42857142857143
11	6949593	68	0.5
11	6949593	69	0
11	6949593	70	0
11	6949593	71	0.5
11	6949593	72	0
11	6949593	73	0
11	6949593	74	0.25
11	6949593	75	0
11	6949593	76	0.5
vector 12  geant_network.node[12].content_store  hit_node[12]  ETV
12	6949593	1	-nan
12	6949593	2	-nan
12	6949593	3	-nan
12	6949593	4	-nan
12	6949593	5	-nan
12	6949593	6	0.33333333333333
12	6949593	7	-nan
12	6949593	8	-nan
12	6949593	9	-nan
12	6949593	10	0.33333333333333
12	6949593	11	0
12	6949593	12	0
12	6949593	13	0.4
12	6949593	14	0.14285714285714
12	6949593	15	0.14285714285714
12	6949593	16	0.2
12	6949593	17	0
12	6949593	18	0.16666666666667
12	6949593	19	0
12	6949593	20	0.33333333333333
12	6949593	21	0
12	6949593	22	0
12	6949593	23	0
12	6949593	24	0.4
12	6949593	25	0
12	6949593	26	0.33333333333333
12	6949593	27	0
12	6949593	28	0
12	6949593	29	0.16666666666667
12	6949593	30	0.2
12	6949593	31	0.33333333333333
12	6949593	32	0
12	6949593	33	0
12	6949593	34	0
12	6949593	35	0.16666666666667
12	6949593	36	0.125
12	6949593	37	0
12	6949593	38	0
12	6949593	39	0
12	6949593	40	0
12	6949593	41	-nan
12	6949593	42	0
12	6949593	43	0
12	6949593	44	0.14285714285714
12	6949593	45	0.16666666666667
12	6949593	46	0
12	6949593	47	0
12	6949593	48	0
12	6949593	49	0
12	6949593	50	0
12	6949593	51	0
12	6949593	52	0
12	6949593	53	0.25
12	6949593	54	0.33333333333333
12	6949593	55	0
12	6949593	56	0
12	6949593	57	0
12	6949593	58	0
12	6949593	59	0.25
12	6949593	60	0
12	6949593	61	0.25
12	6949593	62	0
12	6949593	63	0.2
12	6949593	64	0
12	6949593	65	0.11111111111111
12	6949593	66	0
12	6949593	67	0
12	6949593	68	0
12	6949593	69	0
12	6949593	70	0
12	6949593	71	0
12	6949593	72	0
12	6949593	73	0
12	6949593	74	0
12	6949593	75	0.14285714285714
12	6949593	76	0.16666666666667
vector 13  geant_network.node[13].content_store  hit_node[13]  ETV
13	6949593	1	-nan
13	6949593	2	-nan
13	6949593	3	-nan
13	6949593	4	-nan
13	6949593	5	-nan
13	6949593	6	-nan
13	6949593	7	-nan
13	6949593	8	-nan
13	6949593	9	-nan
13	6949593	10	0
13	6949593	11	0
13	6949593	12	0.5
13	6949593	13	0.5
13	6949593	14	0
13	6949593	15	0
13	6949593	16	0
13	6949593	17	-nan
13	6949593	18	0
13	6949593	19	1
13	6949593	20	0
13	6949593	21	-nan
13	6949593	22	-nan
13	6949593	23	-nan
13	6949593	24	-nan
13	6949593	25	-nan
13	6949593	26	0
13	6949593	27	0
13	6949593	28	-nan
13	6949593	29	-nan
13	6949593	30	0.66666666666667
13	6949593	31	-nan
13	6949593	32	0
13	6949593	33	0.5
13	6949593	34	-nan
13	6949593	35	-nan
13	6949593	36	0.4
13	6949593	37	0
13	6949593	38	0.66666666666667
13	6949593	39	-nan
13	6949593	40	-nan
13	6949593	41	-nan
13	6949593	42	-nan
13	6949593	43	-nan
13	6949593	44	0
13	6949593	45	-nan
13	6949593	46	-nan
13	6949593	47	-nan
13	6949593	48	0
13	6949593	49	-nan
13	6949593	50	0
13	6949593	51	-nan
13	6949593	52	0
13	6949593	53	-nan
13	6949593	54	0.4
13	6949593	55	0
13	6949593	56	0
13	6949593	57	-nan
13	6949593	58	0
13	6949593	59	0.75
13	6949593	60	0.61538461538462
13	6949593	61	-nan
13	6949593	62	-nan
13	6949593	63	0.33333333333333
13	6949593	64	0
13	6949593	65	0.5
13	6949593	66	0
13	6949593	67	-nan
13	6949593	68	-nan
13	6949593	69	-nan
13	6949593	70	0
13	6949593	71	-nan
13	6949593	72	0
13	6949593	73	-nan
13	6949593	74	0.75
13	6949593	75	-nan
13	6949593	76	0.25
vector 14  geant_network.node[14].content_store  hit_node[14]  ETV
14	6949593	1	0.99418604651163
14	6949593	2	0.94318181818182
14	6949593	3	0.90625
14	6949593	4	0.72093023255814
14	6949593	5	0.84782608695652
14	6949593	6	0.85454545454545
14	6949593	7	0.62962962962963
14	6949593	8	0.66666666666667
14	6949593	9	0.71875
14	6949593	10	0.59090909090909
14	6949593	11	0.66666666666667
14	6949593	12	0.57692307692308
14	6949593	13	0.45833333333333
14	6949593	14	0.42105263157895
14	6949593	15	0.46153846153846
14	6949593	16	0.47058823529412
14	6949593	17	0.53333333333333
14	6949593	18	0.46153846153846
14	6949593	19	0.1
14	6949593	20	0.52941176470588
14	6949593	21	0.55
14	6949593	22	0.44444444444444
14	6949593	23	0.46153846153846
14	6949593	24	0.42857142857143
14	6949593	25	0.46666666666667
14	6949593	26	0.38461538461538
14	6949593	27	0.58823529411765
14	6949593	28	0.5
14	6949593	29	0.30769230769231
14	6949593	30	0.5
14	6949593	31	0.125
14	6949593	32	0.33333333333333
14	6949593	33	0.33333333333333
14	6949593	34	0
14	6949593	35	0.28571428571429
14	6949593	36	0.5
14	6949593	37	0.33333333333333
14	6949593	38	0.38461538461538
14	6949593	39	0
14	6949593	40	0.33333333333333
14	6949593	41	0.2
14	6949593	42	0.25
14	6949593	43	0.5
14	6949593	44	0.5625
14	6949593	45	0.2
14	6949593	46	0.4
14	6949593	47	0.44444444444444
14	6949593	48	0.33333333333333
14	6949593	49	0
14	6949593	50	0.33333333333333
14	6949593	51	0.25
14	6949593	52	0.45454545454545
14	6949593	53	0
14	6949593	54	0
14	6949593	55	0.42857142857143
14	6949593	56	0.3
14	6949593	57	0.2
14	6949593	58	0.375
14	6949593	59	0.375
14	6949593	60	0.36363636363636
14	6949593	61	0.5
14	6949593	62	0.25
14	6949593	63	0.46666666666667
14	6949593	64	0.2
14	6949593	65	0.25
14	6949593	66	0.6
14	6949593	67	0.33333333333333
14	6949593	68	0.4
14	6949593	69	0.44444444444444
14	6949593	70	0.6
14	6949593	71	0.5
14	6949593	72	0.71428571428571
14	6949593	73	0.25
14	6949593	74	0.22222222222222
14	6949593	75	0.25
14	6949593	76	0.45454545454545
vector 15  geant_network.node[15].content_store  hit_node[15]  ETV
15	6949593	1	-nan
15	6949593	2	-nan
15	6949593	3	-nan
15	6949593	4	-nan
15	6949593	5	-nan
15	6949593	6	1
15	6949593	7	0
15	6949593	8	-nan
15	6949593	9	0.5
15	6949593	10	0.2
15	6949593	11	-nan
15	6949593	12	0.66666666666667
15	6949593	13	0.77777777777778
15	6949593	14	0.57142857142857
15	6949593	15	0.4
15	6949593	16	0.77777777777778
15	6949593	17	0.75
15	6949593	18	0.5
15	6949593	19	0.8
15	6949593	20	-nan
15	6949593	21	0.77777777777778
15	6949593	22	0.875
15	6949593	23	0
15	6949593	24	0.625
15	6949593	25	0
15	6949593	26	0.84615384615385
15	6949593	27	-nan
15	6949593	28	0.75
15	6949593	29	0.8125
15	6949593	30	0.76470588235294
15	6949593	31	0.66666666666667
15	6949593	32	0.5
15	6949593	33	-nan
15	6949593	34	-nan
15	6949593	35	0
15	6949593	36	0.77777777777778
15	6949593	37	0.75
15	6949593	38	0.9375
15	6949593	39	0.75
15	6949593	40	0.25
15	6949593	41	0.6
15	6949593	42	0.375
15	6949593	43	0.66666666666667
15	6949593	44	0.6
15	6949593	45	0.57142857142857
15	6949593	46	0.66666666666667
15	6949593	47	0.33333333333333
15	6949593	48	-nan
15	6949593	49	0
15	6949593	50	0.5
15	6949593	51	0.25
15	6949593	52	0
15	6949593	53	0
15	6949593	54	0
15	6949593	55	-nan
15	6949593	56	0
15	6949593	57	0.5
15	6949593	58	0
15	6949593	59	0.66666666666667
15	6949593	60	0.28571428571429
15	6949593	61	0
15	6949593	62	0.5
15	6949593	63	0.625
15	6949593	64	0.33333333333333
15	6949593	65	-nan
15	6949593	66	0
15	6949593	67	0.2
15	6949593	68	0.77777777777778
15	6949593	69	0.7
15	6949593	70	-nan
15	6949593	71	-nan
15	6949593	72	0.2
15	6949593	73	0
15	6949593	74	0
15	6949593	75	0.53333333333333
15	6949593	76	0.66666666666667
vector 16  geant_network.node[16].content_store  hit_node[16]  ETV
16	6949593	1	-nan
16	6949593	2	-nan
16	6949593	3	-nan
16	6949593	4	-nan
16	6949593	5	-nan
16	6949593	6	-nan
16	6949593	7	-nan
16	6949593	8	-nan
16	6949593	9	-nan
16	6949593	10	-nan
16	6949593	11	-nan
16	6949593	12	-nan
16	6949593	13	-nan
16	6949593	14	-nan
16	6949593	15	-nan
16	6949593	16	-nan
16	6949593	17	-nan
16	6949593	18	-nan
16	6949593	19	-nan
16	6949593	20	-nan
16	6949593	21	-nan
16	6949593	22	-nan
16	6949593	23	-nan
16	6949593	24	-nan
16	6949593	25	-nan
16	6949593	26	-nan
16	6949593	27	-nan
16	6949593	28	-nan
16	6949593	29	-nan
16	6949593	30	-nan
16	6949593	31	-nan
16	6949593	32	-nan
16	6949593	33	-nan
16	6949593	34	-nan
16	6949593	35	-nan
16	6949593	36	0.625
16	6949593	37	0.5
16	6949593	38	-nan
16	6949593	39	-nan
16	6949593	40	-nan
16	6949593	41	-nan
16	6949593	42	-nan
16	6949593	43	-nan
16	6949593	44	0.5
16	6949593	45	-nan
16	6949593	46	-nan
16	6949593	47	-nan
16	6949593	48	-nan
16	6949593	49	-nan
16	6949593	50	-nan
16	6949593	51	-nan
16	6949593	52	-nan
16	6949593	53	-nan
16	6949593	54	-nan
16	6949593	55	0.2
16	6949593	56	0.66666666666667
16	6949593	57	-nan
16	6949593	58	0.83333333333333
16	6949593	59	-nan
16	6949593	60	-nan
16	6949593	61	-nan
16	6949593	62	-nan
16	6949593	63	0.66666666666667
16	6949593	64	0.875
16	6949593	65	-nan
16	6949593	66	-nan
16	6949593	67	-nan
16	6949593	68	-nan
16	6949593	69	-nan
16	6949593	70	-nan
16	6949593	71	-nan
16	6949593	72	-nan
16	6949593	73	-nan
16	6949593	74	-nan
16	6949593	75	-nan
16	6949593	76	0.66666666666667
vector 17  geant_network.node[17].content_store  hit_node[17]  ETV
17	6949593	1	1
17	6949593	2	1
17	6949593	3	0.98333333333333
17	6949593	4	0.87179487179487
17	6949593	5	0.89473684210526
17	6949593	6	0.91176470588235
17	6949593	7	0.85185185185185
17	6949593	8	0.83333333333333
17	6949593	9	0.71428571428571
17	6949593	10	0.64705882352941
17	6949593	11	0.6
17	6949593	12	0.72222222222222
17	6949593	13	0.8
17	6949593	14	0.82608695652174
17	6949593	15	0.4
17	6949593	16	0.5625
17	6949593	17	0.57142857142857
17	6949593	18	0.73684210526316
17	6949593	19	0.14285714285714
17	6949593	20	0.8125
17	6949593	21	0.5
17	6949593	22	0.44444444444444
17	6949593	23	0.33333333333333
17	6949593	24	0.6
17	6949593	25	0.72727272727273
17	6949593	26	0.45454545454545
17	6949593	27	0.61538461538462
17	6949593	28	0.57142857142857
17	6949593	29	0.28571428571429
17	6949593	30	0.58333333333333
17	6949593	31	0.33333333333333
17	6949593	32	0.57142857142857
17	6949593	33	0
17	6949593	34	0.66666666666667
17	6949593	35	0.28571428571429
17	6949593	36	0.44444444444444
17	6949593	37	0.71428571428571
17	6949593	38	0.33333333333333
17	6949593	39	0.4
17	6949593	40	0.64285714285714
17	6949593	41	0.4
17	6949593	42	0.75
17	6949593	43	0.44444444444444
17	6949593	44	0.4