version 2
run General-0-20150311-18:59:35-28953
attr D lce
attr F spr
attr R lru
attr a 0.5
attr configname General
attr datetime 20150311-18:59:35
attr experiment General
attr inifile omnetpp.ini
attr iterationvars "$net=abilene, $rep=0, $a=0.5, $F=spr, $ttl=1000, $D=lce, $R=lru"
attr iterationvars2 "$net=abilene, $rep=0, $a=0.5, $F=spr, $ttl=1000, $D=lce, $R=lru, $repetition=0"
attr measurement "$net=abilene, $rep=0, $a=0.5, $F=spr, $ttl=1000, $D=lce, $R=lru"
attr net abilene
attr network networks.${net=abilene}_network
attr processid 28953
attr rep 0
attr repetition 0
attr replication #0
attr resultdir results
attr runnumber 0
attr seedset 0
attr ttl 1000

vector 0  abilene_network.node[0].content_store  hit_node[0]  ETV
0	397541	1	0
0	397541	2	0
0	397541	3	0.28571428571429
0	397541	4	0.33333333333333
0	397541	5	0.2
0	397541	6	0
0	397541	7	0
0	397541	8	0
0	397541	9	0
0	397541	10	0
0	397541	11	-nan
0	397541	12	0
0	397541	13	0
0	397541	14	0
0	397541	15	0
0	397541	16	0.5
0	397541	17	0.33333333333333
0	397541	18	0
0	397541	19	0
0	397541	20	0
0	397541	21	-nan
0	397541	22	0
0	397541	23	0
0	397541	24	0
0	397541	25	-nan
0	397541	26	0
0	397541	27	-nan
0	397541	28	0
0	397541	29	-nan
0	397541	30	0
0	397541	31	0
0	397541	32	0
0	397541	33	-nan
0	397541	34	-nan
0	397541	35	0
0	397541	36	0
0	397541	37	0
0	397541	38	-nan
0	397541	39	-nan
0	397541	40	0
0	397541	41	0
0	397541	42	0.5
0	397541	43	-nan
0	397541	44	0
0	397541	45	-nan
0	397541	46	0
0	397541	47	-nan
0	397541	48	0
0	397541	49	0
0	397541	50	0
0	397541	51	0
0	397541	52	0
0	397541	53	0
0	397541	54	0
0	397541	55	0
0	397541	56	-nan
0	397541	57	0
0	397541	58	0
0	397541	59	-nan
0	397541	60	0
0	397541	61	0
0	397541	62	0
0	397541	63	0
0	397541	64	0
0	397541	65	0
0	397541	66	-nan
0	397541	67	-nan
0	397541	68	-nan
0	397541	69	0
0	397541	70	-nan
0	397541	71	-nan
0	397541	72	0
0	397541	73	-nan
0	397541	74	0.5
0	397541	75	-nan
0	397541	76	-nan
0	397541	77	0
0	397541	78	0
0	397541	79	0
0	397541	80	0
0	397541	81	-nan
0	397541	82	0
0	397541	83	-nan
0	397541	84	0
0	397541	85	0
0	397541	86	-nan
0	397541	87	-nan
0	397541	88	0
0	397541	89	0
0	397541	90	0
0	397541	91	0
0	397541	92	0
0	397541	93	0.5
0	397541	94	0
0	397541	95	-nan
0	397541	96	-nan
0	397541	97	0
0	397541	98	0
0	397541	99	-nan
0	397541	100	-nan
0	397541	101	-nan
0	397541	102	-nan
0	397541	103	-nan
0	397541	104	0
0	397541	105	-nan
0	397541	106	0
0	397541	107	-nan
0	397541	108	0
0	397541	109	-nan
0	397541	110	-nan
0	397541	111	0
0	397541	112	-nan
0	397541	113	-nan
0	397541	114	0
0	397541	115	-nan
0	397541	116	-nan
0	397541	117	-nan
0	397541	118	0
0	397541	119	0
0	397541	120	0
0	397541	121	0
0	397541	122	0
0	397541	123	-nan
0	397541	124	0
0	397541	125	0
0	397541	126	-nan
0	397541	127	0
0	397541	128	0
0	397541	129	-nan
0	397541	130	0.33333333333333
0	397541	131	-nan
0	397541	132	-nan
0	397541	133	0
0	397541	134	0
0	397541	135	-nan
0	397541	136	0
0	397541	137	-nan
0	397541	138	0
0	397541	139	0
0	397541	140	-nan
0	397541	141	0
0	397541	142	0
0	397541	143	-nan
0	397541	144	0
0	397541	145	0
0	397541	146	-nan
0	397541	147	0
0	397541	148	0
0	397541	149	-nan
0	397541	150	0
0	397541	151	0
0	397541	152	-nan
0	397541	153	0
0	397541	154	0
0	397541	155	0
0	397541	156	-nan
0	397541	157	0
0	397541	158	0
0	397541	159	0
0	397541	160	-nan
0	397541	161	-nan
0	397541	162	0
0	397541	163	0
0	397541	164	-nan
0	397541	165	-nan
0	397541	166	0
0	397541	167	-nan
0	397541	168	-nan
0	397541	169	0
0	397541	170	0
0	397541	171	-nan
0	397541	172	-nan
0	397541	173	-nan
0	397541	174	-nan
0	397541	175	-nan
0	397541	176	0
0	397541	177	0
0	397541	178	0.5
0	397541	179	0
0	397541	180	-nan
0	397541	181	-nan
0	397541	182	0
0	397541	183	0
0	397541	184	-nan
0	397541	185	-nan
0	397541	186	0
0	397541	187	-nan
0	397541	188	-nan
0	397541	189	-nan
0	397541	190	-nan
0	397541	191	0
0	397541	192	0
0	397541	193	0
0	397541	194	-nan
0	397541	195	-nan
0	397541	196	-nan
0	397541	197	-nan
0	397541	198	0
0	397541	199	-nan
0	397541	200	0
0	397541	201	-nan
0	397541	202	-nan
0	397541	203	0
0	397541	204	0
0	397541	205	-nan
0	397541	206	0
0	397541	207	-nan
0	397541	208	0
0	397541	209	0.66666666666667
0	397541	210	-nan
0	397541	211	-nan
0	397541	212	0
0	397541	213	0
0	397541	214	0
0	397541	215	0
0	397541	216	0
0	397541	217	-nan
0	397541	218	0
0	397541	219	-nan
0	397541	220	-nan
0	397541	221	0
0	397541	222	0
0	397541	223	-nan
0	397541	224	0
0	397541	225	-nan
0	397541	226	-nan
0	397541	227	-nan
0	397541	228	-nan
0	397541	229	0
0	397541	230	0
0	397541	231	0
0	397541	232	-nan
0	397541	233	0
0	397541	234	0
0	397541	235	-nan
0	397541	236	-nan
0	397541	237	-nan
0	397541	238	-nan
0	397541	239	-nan
0	397541	240	0
0	397541	241	0
0	397541	242	-nan
0	397541	243	-nan
0	397541	244	0
0	397541	245	0
0	397541	246	-nan
0	397541	247	0
0	397541	248	0
0	397541	249	0
0	397541	250	-nan
0	397541	251	0.33333333333333
0	397541	252	-nan
0	397541	253	0
0	397541	254	-nan
0	397541	255	-nan
0	397541	256	-nan
0	397541	257	0
0	397541	258	-nan
0	397541	259	-nan
0	397541	260	0
0	397541	261	0
0	397541	262	0
0	397541	263	0
0	397541	264	-nan
0	397541	265	-nan
0	397541	266	-nan
0	397541	267	-nan
0	397541	268	-nan
0	397541	269	0
0	397541	270	-nan
0	397541	271	0
0	397541	272	-nan
0	397541	273	-nan
0	397541	274	0
0	397541	275	0
0	397541	276	-nan
0	397541	277	0
0	397541	278	-nan
0	397541	279	0
0	397541	280	-nan
0	397541	281	-nan
0	397541	282	-nan
0	397541	283	-nan
0	397541	284	-nan
0	397541	285	-nan
0	397541	286	-nan
0	397541	287	-nan
0	397541	288	-nan
0	397541	289	-nan
0	397541	290	-nan
0	397541	291	-nan
0	397541	292	0
0	397541	293	0
0	397541	294	-nan
0	397541	295	-nan
0	397541	296	-nan
0	397541	297	-nan
0	397541	298	-nan
0	397541	299	-nan
0	397541	300	0
0	397541	301	-nan
0	397541	302	-nan
0	397541	303	0
0	397541	304	-nan
0	397541	305	-nan
0	397541	306	0
0	397541	307	-nan
0	397541	308	-nan
0	397541	309	0
0	397541	310	0
0	397541	311	0
0	397541	312	-nan
0	397541	313	-nan
0	397541	314	-nan
0	397541	315	-nan
0	397541	316	-nan
0	397541	317	0
0	397541	318	0
0	397541	319	0
0	397541	320	-nan
0	397541	321	0
0	397541	322	0
0	397541	323	0
0	397541	324	-nan
0	397541	325	0
0	397541	326	-nan
0	397541	327	0
0	397541	328	0
0	397541	329	0
0	397541	330	-nan
0	397541	331	-nan
0	397541	332	0
0	397541	333	0
0	397541	334	-nan
0	397541	335	0
0	397541	336	0
0	397541	337	-nan
0	397541	338	0
0	397541	339	0
0	397541	340	0
0	397541	341	-nan
0	397541	342	0
0	397541	343	-nan
0	397541	344	-nan
0	397541	345	0
0	397541	346	0
0	397541	347	-nan
0	397541	348	-nan
0	397541	349	-nan
0	397541	350	-nan
0	397541	351	-nan
0	397541	352	-nan
0	397541	353	0
0	397541	354	0
0	397541	355	-nan
0	397541	356	-nan
0	397541	357	-nan
0	397541	358	0
0	397541	359	0
0	397541	360	-nan
0	397541	361	0
0	397541	362	-nan
0	397541	363	-nan
0	397541	364	0
0	397541	365	-nan
0	397541	366	-nan
0	397541	367	0
0	397541	368	-nan
0	397541	369	-nan
0	397541	370	-nan
0	397541	371	-nan
0	397541	372	-nan
0	397541	373	-nan
0	397541	374	-nan
0	397541	375	-nan
0	397541	376	0
0	397541	377	-nan
0	397541	378	-nan
0	397541	379	0
0	397541	380	-nan
0	397541	381	-nan
0	397541	382	0
0	397541	383	-nan
0	397541	384	-nan
0	397541	385	0
0	397541	386	-nan
0	397541	387	-nan
0	397541	388	0
0	397541	389	-nan
0	397541	390	-nan
0	397541	391	-nan
0	397541	392	-nan
0	397541	393	-nan
0	397541	394	-nan
0	397541	395	0
0	397541	396	-nan
0	397541	397	-nan
0	397541	398	0
0	397541	399	0
0	397541	400	-nan
0	397541	401	-nan
0	397541	402	-nan
0	397541	403	-nan
0	397541	404	-nan
0	397541	405	-nan
0	397541	406	-nan
0	397541	407	-nan
0	397541	408	-nan
0	397541	409	-nan
0	397541	410	-nan
0	397541	411	0
0	397541	412	-nan
0	397541	413	-nan
0	397541	414	0
0	397541	415	0
0	397541	416	-nan
0	397541	417	-nan
0	397541	418	0
0	397541	419	0.5
0	397541	420	-nan
0	397541	421	0
0	397541	422	-nan
0	397541	423	-nan
0	397541	424	0
0	397541	425	0
0	397541	426	-nan
0	397541	427	0
0	397541	428	0
0	397541	429	0
0	397541	430	-nan
0	397541	431	-nan
0	397541	432	0
0	397541	433	-nan
0	397541	434	0
0	397541	435	-nan
0	397541	436	0
0	397541	437	0
0	397541	438	0
0	397541	439	-nan
0	397541	440	0
0	397541	441	-nan
0	397541	442	-nan
0	397541	443	-nan
0	397541	444	-nan
0	397541	445	-nan
0	397541	446	-nan
0	397541	447	-nan
0	397541	448	0
0	397541	449	0
0	397541	450	0
0	397541	451	-nan
0	397541	452	-nan
0	397541	453	-nan
0	397541	454	0.5
0	397541	455	-nan
0	397541	456	-nan
0	397541	457	0
0	397541	458	-nan
0	397541	459	0
0	397541	460	0
0	397541	461	0
0	397541	462	-nan
0	397541	463	-nan
0	397541	464	-nan
0	397541	465	-nan
0	397541	466	-nan
0	397541	467	0
0	397541	468	0
0	397541	469	0
0	397541	470	-nan
0	397541	471	-nan
0	397541	472	-nan
0	397541	473	-nan
0	397541	474	-nan
0	397541	475	-nan
0	397541	476	0
0	397541	477	0
0	397541	478	-nan
0	397541	479	0
0	397541	480	0
0	397541	481	0
0	397541	482	-nan
0	397541	483	-nan
0	397541	484	-nan
0	397541	485	0
0	397541	486	-nan
0	397541	487	-nan
0	397541	488	-nan
0	397541	489	0
0	397541	490	-nan
0	397541	491	0
0	397541	492	0
0	397541	493	-nan
0	397541	494	0
0	397541	495	-nan
0	397541	496	-nan
0	397541	497	-nan
0	397541	498	-nan
0	397541	499	0
0	397541	500	-nan
0	397541	501	0
0	397541	502	0.5
0	397541	503	-nan
0	397541	504	0
0	397541	505	-nan
0	397541	506	-nan
0	397541	507	0
0	397541	508	0
0	397541	509	-nan
0	397541	510	0
0	397541	511	0
0	397541	512	-nan
0	397541	513	-nan
0	397541	514	0
0	397541	515	-nan
0	397541	516	-nan
0	397541	517	-nan
0	397541	518	-nan
0	397541	519	-nan
0	397541	520	0
0	397541	521	-nan
0	397541	522	-nan
0	397541	523	-nan
0	397541	524	-nan
0	397541	525	-nan
0	397541	526	-nan
0	397541	527	-nan
0	397541	528	-nan
0	397541	529	-nan
0	397541	530	0
0	397541	531	-nan
0	397541	532	-nan
0	397541	533	-nan
0	397541	534	-nan
0	397541	535	-nan
0	397541	536	-nan
0	397541	537	0
0	397541	538	0
0	397541	539	-nan
0	397541	540	0
0	397541	541	-nan
0	397541	542	-nan
0	397541	543	-nan
0	397541	544	-nan
0	397541	545	-nan
0	397541	546	-nan
0	397541	547	0
0	397541	548	0
0	397541	549	0
0	397541	550	-nan
0	397541	551	-nan
0	397541	552	-nan
0	397541	553	-nan
0	397541	554	-nan
0	397541	555	0
0	397541	556	-nan
0	397541	557	0
0	397541	558	-nan
0	397541	559	-nan
0	397541	560	0
0	397541	561	0
0	397541	562	-nan
0	397541	563	0
0	397541	564	-nan
0	397541	565	-nan
0	397541	566	-nan
0	397541	567	-nan
0	397541	568	0
0	397541	569	-nan
0	397541	570	-nan
0	397541	571	0
0	397541	572	0
0	397541	573	-nan
0	397541	574	-nan
0	397541	575	-nan
0	397541	576	-nan
0	397541	577	-nan
0	397541	578	-nan
0	397541	579	-nan
0	397541	580	-nan
0	397541	581	-nan
0	397541	582	-nan
0	397541	583	-nan
0	397541	584	-nan
0	397541	585	-nan
0	397541	586	-nan
0	397541	587	-nan
0	397541	588	-nan
0	397541	589	-nan
0	397541	590	-nan
0	397541	591	0
0	397541	592	0
0	397541	593	-nan
0	397541	594	0
0	397541	595	-nan
0	397541	596	-nan
0	397541	597	0
0	397541	598	0
0	397541	599	0
0	397541	600	-nan
0	397541	601	-nan
0	397541	602	-nan
0	397541	603	-nan
0	397541	604	-nan
0	397541	605	0
0	397541	606	-nan
0	397541	607	-nan
0	397541	608	-nan
0	397541	609	-nan
0	397541	610	-nan
0	397541	611	-nan
0	397541	612	-nan
0	397541	613	0
0	397541	614	0
0	397541	615	-nan
0	397541	616	-nan
0	397541	617	-nan
0	397541	618	-nan
0	397541	619	-nan
0	397541	620	-nan
0	397541	621	-nan
0	397541	622	-nan
0	397541	623	-nan
0	397541	624	-nan
0	397541	625	-nan
0	397541	626	-nan
0	397541	627	0
0	397541	628	0
0	397541	629	-nan
0	397541	630	-nan
0	397541	631	-nan
0	397541	632	-nan
0	397541	633	-nan
0	397541	634	-nan
0	397541	635	-nan
0	397541	636	-nan
0	397541	637	-nan
0	397541	638	0
0	397541	639	0
0	397541	640	-nan
0	397541	641	-nan
0	397541	642	-nan
0	397541	643	-nan
0	397541	644	-nan
0	397541	645	-nan
0	397541	646	0
0	397541	647	-nan
0	397541	648	-nan
0	397541	649	-nan
0	397541	650	0
0	397541	651	-nan
0	397541	652	0
0	397541	653	0
0	397541	654	-nan
0	397541	655	-nan
0	397541	656	-nan
0	397541	657	-nan
0	397541	658	-nan
0	397541	659	-nan
0	397541	660	0
0	397541	661	0
0	397541	662	-nan
0	397541	663	-nan
0	397541	664	0
0	397541	665	-nan
0	397541	666	-nan
0	397541	667	0
0	397541	668	0
0	397541	669	-nan
0	397541	670	-nan
0	397541	671	0
0	397541	672	-nan
0	397541	673	-nan
0	397541	674	-nan
0	397541	675	-nan
0	397541	676	0
0	397541	677	-nan
0	397541	678	0
0	397541	679	0
0	397541	680	0
0	397541	681	0
0	397541	682	0
0	397541	683	0
0	397541	684	-nan
0	397541	685	0
0	397541	686	-nan
0	397541	687	0
0	397541	688	0
0	397541	689	-nan
0	397541	690	-nan
0	397541	691	-nan
0	397541	692	-nan
0	397541	693	-nan
0	397541	694	-nan
0	397541	695	-nan
0	397541	696	-nan
0	397541	697	-nan
0	397541	698	0
0	397541	699	0
0	397541	700	-nan
0	397541	701	-nan
0	397541	702	0
0	397541	703	-nan
0	397541	704	-nan
0	397541	705	-nan
0	397541	706	-nan
0	397541	707	-nan
0	397541	708	-nan
0	397541	709	-nan
0	397541	710	-nan
0	397541	711	-nan
0	397541	712	0
0	397541	713	-nan
0	397541	714	-nan
0	397541	715	-nan
0	397541	716	-nan
0	397541	717	0
0	397541	718	-nan
0	397541	719	0
0	397541	720	-nan
0	397541	721	0
0	397541	722	0
0	397541	723	-nan
0	397541	724	-nan
0	397541	725	-nan
0	397541	726	0
0	397541	727	-nan
0	397541	728	0
0	397541	729	0
0	397541	730	-nan
0	397541	731	-nan
0	397541	732	-nan
0	397541	733	-nan
0	397541	734	0
0	397541	735	-nan
0	397541	736	0
0	397541	737	0
0	397541	738	-nan
0	397541	739	0
0	397541	740	-nan
0	397541	741	-nan
0	397541	742	0
0	397541	743	-nan
0	397541	744	0
0	397541	745	0
0	397541	746	0
0	397541	747	-nan
0	397541	748	0
0	397541	749	0
0	397541	750	0
0	397541	751	0
0	397541	752	-nan
0	397541	753	-nan
0	397541	754	-nan
0	397541	755	-nan
0	397541	756	0
0	397541	757	-nan
0	397541	758	-nan
0	397541	759	-nan
0	397541	760	-nan
0	397541	761	0
0	397541	762	-nan
0	397541	763	-nan
0	397541	764	0
0	397541	765	0
0	397541	766	-nan
0	397541	767	-nan
0	397541	768	-nan
0	397541	769	0
0	397541	770	-nan
0	397541	771	-nan
0	397541	772	-nan
0	397541	773	-nan
0	397541	774	-nan
0	397541	775	-nan
0	397541	776	-nan
0	397541	777	0
0	397541	778	-nan
0	397541	779	-nan
0	397541	780	-nan
0	397541	781	-nan
0	397541	782	-nan
0	397541	783	0
0	397541	784	-nan
0	397541	785	-nan
0	397541	786	-nan
0	397541	787	-nan
0	397541	788	-nan
0	397541	789	0
0	397541	790	0
0	397541	791	-nan
0	397541	792	-nan
0	397541	793	-nan
0	397541	794	-nan
0	397541	795	0
0	397541	796	-nan
0	397541	797	-nan
0	397541	798	-nan
0	397541	799	-nan
0	397541	800	-nan
0	397541	801	-nan
0	397541	802	-nan
0	397541	803	0
0	397541	804	-nan
0	397541	805	-nan
0	397541	806	-nan
0	397541	807	-nan
0	397541	808	-nan
0	397541	809	-nan
0	397541	810	0
0	397541	811	-nan
0	397541	812	-nan
0	397541	813	-nan
0	397541	814	-nan
0	397541	815	-nan
0	397541	816	0
0	397541	817	0
0	397541	818	-nan
0	397541	819	-nan
0	397541	820	-nan
0	397541	821	-nan
0	397541	822	0
0	397541	823	0
0	397541	824	0
0	397541	825	0
0	397541	826	-nan
0	397541	827	-nan
0	397541	828	0
0	397541	829	-nan
0	397541	830	0
0	397541	831	-nan
0	397541	832	-nan
0	397541	833	-nan
0	397541	834	-nan
0	397541	835	-nan
0	397541	836	-nan
0	397541	837	-nan
0	397541	838	-nan
0	397541	839	-nan
0	397541	840	-nan
0	397541	841	-nan
0	397541	842	-nan
0	397541	843	0.5
0	397541	844	-nan
0	397541	845	-nan
0	397541	846	-nan
0	397541	847	-nan
0	397541	848	0
0	397541	849	-nan
0	397541	850	0
0	397541	851	0
0	397541	852	-nan
0	397541	853	-nan
0	397541	854	-nan
0	397541	855	0
0	397541	856	-nan
0	397541	857	-nan
0	397541	858	-nan
0	397541	859	-nan
0	397541	860	-nan
0	397541	861	0
0	397541	862	-nan
0	397541	863	-nan
0	397541	864	0.33333333333333
0	397541	865	0
0	397541	866	-nan
0	397541	867	0
0	397541	868	-nan
0	397541	869	-nan
0	397541	870	-nan
0	397541	871	-nan
0	397541	872	0
0	397541	873	-nan
0	397541	874	-nan
0	397541	875	-nan
0	397541	876	-nan
0	397541	877	0
0	397541	878	-nan
0	397541	879	-nan
0	397541	880	0
0	397541	881	-nan
0	397541	882	-nan
0	397541	883	-nan
0	397541	884	0
0	397541	885	-nan
0	397541	886	-nan
0	397541	887	0.5
0	397541	888	-nan
0	397541	889	-nan
0	397541	890	-nan
0	397541	891	0
0	397541	892	-nan
0	397541	893	-nan
0	397541	894	0
0	397541	895	-nan
0	397541	896	-nan
0	397541	897	-nan
0	397541	898	-nan
0	397541	899	0
0	397541	900	-nan
0	397541	901	-nan
0	397541	902	-nan
0	397541	903	0
0	397541	904	-nan
0	397541	905	-nan
0	397541	906	0
0	397541	907	-nan
0	397541	908	-nan
0	397541	909	-nan
0	397541	910	0
0	397541	911	-nan
0	397541	912	-nan
0	397541	913	-nan
0	397541	914	-nan
0	397541	915	0
0	397541	916	-nan
0	397541	917	-nan
0	397541	918	0
0	397541	919	-nan
0	397541	920	-nan
0	397541	921	-nan
0	397541	922	-nan
0	397541	923	-nan
0	397541	924	-nan
0	397541	925	-nan
0	397541	926	0
0	397541	927	-nan
0	397541	928	-nan
0	397541	929	0
0	397541	930	-nan
0	397541	931	0
0	397541	932	0
0	397541	933	-nan
0	397541	934	0
0	397541	935	-nan
0	397541	936	-nan
0	397541	937	-nan
0	397541	938	0
0	397541	939	-nan
0	397541	940	-nan
0	397541	941	-nan
0	397541	942	-nan
0	397541	943	-nan
0	397541	944	-nan
0	397541	945	0
0	397541	946	0
0	397541	947	-nan
0	397541	948	-nan
0	397541	949	0
0	397541	950	-nan
0	397541	951	-nan
0	397541	952	-nan
0	397541	953	-nan
0	397541	954	-nan
0	397541	955	0
0	397541	956	-nan
0	397541	957	-nan
0	397541	958	-nan
0	397541	959	-nan
0	397541	960	-nan
0	397541	961	-nan
0	397541	962	-nan
0	397541	963	-nan
0	397541	964	-nan
0	397541	965	-nan
0	397541	966	-nan
0	397541	967	-nan
0	397541	968	0
0	397541	969	-nan
0	397541	970	-nan
0	397541	971	0
0	397541	972	-nan
0	397541	973	-nan
0	397541	974	0
0	397541	975	-nan
0	397541	976	-nan
0	397541	977	-nan
0	397541	978	-nan
0	397541	979	-nan
0	397541	980	0
0	397541	981	-nan
0	397541	982	-nan
0	397541	983	-nan
0	397541	984	-nan
0	397541	985	-nan
0	397541	986	-nan
0	397541	987	-nan
0	397541	988	-nan
0	397541	989	-nan
0	397541	990	0
0	397541	991	0
0	397541	992	-nan
0	397541	993	-nan
0	397541	994	-nan
0	397541	995	-nan
0	397541	996	-nan
0	397541	997	0
0	397541	998	-nan
0	397541	999	-nan
0	397541	1000	0
0	397541	1001	-nan
0	397541	1002	-nan
0	397541	1003	-nan
0	397541	1004	-nan
0	397541	1005	-nan
0	397541	1006	-nan
0	397541	1007	-nan
0	397541	1008	-nan
0	397541	1009	-nan
0	397541	1010	0
0	397541	1011	-nan
0	397541	1012	-nan
0	397541	1013	0
0	397541	1014	0
0	397541	1015	-nan
0	397541	1016	-nan
0	397541	1017	-nan
0	397541	1018	0
0	397541	1019	-nan
0	397541	1020	-nan
0	397541	1021	0
0	397541	1022	-nan
0	397541	1023	0
0	397541	1024	-nan
0	397541	1025	-nan
0	397541	1026	0
0	397541	1027	-nan
0	397541	1028	-nan
0	397541	1029	-nan
0	397541	1030	-nan
0	397541	1031	-nan
0	397541	1032	-nan
0	397541	1033	0
0	397541	1034	-nan
0	397541	1035	-nan
0	397541	1036	-nan
0	397541	1037	0
0	397541	1038	-nan
0	397541	1039	0
0	397541	1040	-nan
0	397541	1041	-nan
0	397541	1042	0
0	397541	1043	-nan
0	397541	1044	-nan
0	397541	1045	-nan
0	397541	1046	-nan
0	397541	1047	-nan
0	397541	1048	-nan
0	397541	1049	-nan
0	397541	1050	-nan
0	397541	1051	-nan
0	397541	1052	0
0	397541	1053	-nan
0	397541	1054	-nan
0	397541	1055	-nan
0	397541	1056	0
0	397541	1057	-nan
0	397541	1058	-nan
0	397541	1059	-nan
0	397541	1060	0
0	397541	1061	-nan
0	397541	1062	-nan
0	397541	1063	-nan
0	397541	1064	0
0	397541	1065	-nan
0	397541	1066	-nan
0	397541	1067	0
0	397541	1068	-nan
0	397541	1069	-nan
0	397541	1070	-nan
0	397541	1071	0
0	397541	1072	-nan
0	397541	1073	-nan
0	397541	1074	-nan
0	397541	1075	-nan
0	397541	1076	-nan
0	397541	1077	0
0	397541	1078	-nan
0	397541	1079	-nan
0	397541	1080	-nan
0	397541	1081	-nan
0	397541	1082	0
0	397541	1083	-nan
0	397541	1084	0
0	397541	1085	-nan
0	397541	1086	-nan
0	397541	1087	-nan
0	397541	1088	-nan
0	397541	1089	-nan
0	397541	1090	-nan
0	397541	1091	-nan
0	397541	1092	-nan
0	397541	1093	-nan
0	397541	1094	-nan
0	397541	1095	-nan
0	397541	1096	-nan
0	397541	1097	-nan
0	397541	1098	-nan
0	397541	1099	-nan
0	397541	1100	0
0	397541	1101	-nan
0	397541	1102	-nan
0	397541	1103	-nan
0	397541	1104	-nan
0	397541	1105	-nan
0	397541	1106	-nan
0	397541	1107	-nan
0	397541	1108	-nan
0	397541	1109	-nan
0	397541	1110	-nan
0	397541	1111	-nan
0	397541	1112	0
0	397541	1113	-nan
0	397541	1114	-nan
0	397541	1115	-nan
0	397541	1116	0
0	397541	1117	-nan
0	397541	1118	-nan
0	397541	1119	-nan
0	397541	1120	-nan
0	397541	1121	-nan
0	397541	1122	0
0	397541	1123	-nan
0	397541	1124	0
0	397541	1125	-nan
0	397541	1126	-nan
0	397541	1127	-nan
0	397541	1128	-nan
0	397541	1129	-nan
0	397541	1130	0
0	397541	1131	-nan
0	397541	1132	0
0	397541	1133	0
0	397541	1134	-nan
0	397541	1135	-nan
0	397541	1136	-nan
0	397541	1137	0
0	397541	1138	-nan
0	397541	1139	-nan
0	397541	1140	-nan
0	397541	1141	-nan
0	397541	1142	0
0	397541	1143	-nan
0	397541	1144	0
0	397541	1145	-nan
0	397541	1146	0
0	397541	1147	-nan
0	397541	1148	-nan
0	397541	1149	-nan
0	397541	1150	-nan
0	397541	1151	0
0	397541	1152	-nan
0	397541	1153	0
0	397541	1154	0
0	397541	1155	-nan
0	397541	1156	-nan
0	397541	1157	-nan
0	397541	1158	-nan
0	397541	1159	-nan
0	397541	1160	-nan
0	397541	1161	-nan
0	397541	1162	-nan
0	397541	1163	-nan
0	397541	1164	-nan
0	397541	1165	0
0	397541	1166	-nan
0	397541	1167	-nan
0	397541	1168	0
0	397541	1169	0
0	397541	1170	-nan
0	397541	1171	-nan
0	397541	1172	-nan
0	397541	1173	-nan
0	397541	1174	0
0	397541	1175	-nan
0	397541	1176	0
0	397541	1177	-nan
0	397541	1178	-nan
0	397541	1179	-nan
0	397541	1180	-nan
0	397541	1181	-nan
0	397541	1182	-nan
0	397541	1183	-nan
0	397541	1184	-nan
0	397541	1185	-nan
0	397541	1186	-nan
0	397541	1187	-nan
0	397541	1188	-nan
0	397541	1189	0
0	397541	1190	-nan
0	397541	1191	-nan
0	397541	1192	0
0	397541	1193	0
0	397541	1194	-nan
0	397541	1195	-nan
0	397541	1196	0
0	397541	1197	-nan
0	397541	1198	-nan
0	397541	1199	-nan
0	397541	1200	-nan
0	397541	1201	-nan
0	397541	1202	-nan
0	397541	1203	-nan
0	397541	1204	-nan
0	397541	1205	-nan
0	397541	1206	-nan
0	397541	1207	-nan
0	397541	1208	-nan
0	397541	1209	0
0	397541	1210	-nan
0	397541	1211	-nan
0	397541	1212	-nan
0	397541	1213	-nan
0	397541	1214	-nan
0	397541	1215	-nan
0	397541	1216	-nan
0	397541	1217	-nan
0	397541	1218	-nan
0	397541	1219	-nan
0	397541	1220	-nan
0	397541	1221	-nan
0	397541	1222	-nan
0	397541	1223	-nan
0	397541	1224	0
0	397541	1225	0
0	397541	1226	0
0	397541	1227	-nan
0	397541	1228	-nan
0	397541	1229	-nan
0	397541	1230	-nan
0	397541	1231	0
0	397541	1232	0
0	397541	1233	-nan
0	397541	1234	0
0	397541	1235	-nan
0	397541	1236	-nan
0	397541	1237	-nan
0	397541	1238	-nan
0	397541	1239	-nan
0	397541	1240	-nan
0	397541	1241	-nan
0	397541	1242	-nan
0	397541	1243	-nan
0	397541	1244	-nan
0	397541	1245	0
0	397541	1246	0
0	397541	1247	-nan
0	397541	1248	-nan
0	397541	1249	-nan
0	397541	1250	-nan
0	397541	1251	-nan
0	397541	1252	-nan
0	397541	1253	-nan
0	397541	1254	-nan
0	397541	1255	-nan
0	397541	1256	-nan
0	397541	1257	-nan
0	397541	1258	-nan
0	397541	1259	-nan
0	397541	1260	-nan
0	397541	1261	-nan
0	397541	1262	-nan
0	397541	1263	-nan
0	397541	1264	0
0	397541	1265	-nan
0	397541	1266	-nan
0	397541	1267	-nan
0	397541	1268	-nan
0	397541	1269	-nan
0	397541	1270	0
0	397541	1271	-nan
0	397541	1272	-nan
0	397541	1273	-nan
0	397541	1274	-nan
0	397541	1275	-nan
0	397541	1276	0
0	397541	1277	-nan
0	397541	1278	-nan
0	397541	1279	-nan
0	397541	1280	0
0	397541	1281	0
0	397541	1282	0
0	397541	1283	0
0	397541	1284	0
0	397541	1285	-nan
0	397541	1286	-nan
0	397541	1287	-nan
0	397541	1288	-nan
0	397541	1289	-nan
0	397541	1290	0
0	397541	1291	-nan
0	397541	1292	0
0	397541	1293	-nan
0	397541	1294	0
0	397541	1295	-nan
0	397541	1296	-nan
0	397541	1297	0
0	397541	1298	0
0	397541	1299	-nan
0	397541	1300	-nan
0	397541	1301	0
0	397541	1302	-nan
0	397541	1303	-nan
0	397541	1304	-nan
0	397541	1305	-nan
0	397541	1306	-nan
0	397541	1307	-nan
0	397541	1308	-nan
0	397541	1309	-nan
0	397541	1310	-nan
0	397541	1311	0
0	397541	1312	-nan
0	397541	1313	0
0	397541	1314	-nan
0	397541	1315	0
0	397541	1316	-nan
0	397541	1317	-nan
0	397541	1318	-nan
0	397541	1319	-nan
0	397541	1320	-nan
0	397541	1321	-nan
0	397541	1322	-nan
0	397541	1323	-nan
0	397541	1324	-nan
0	397541	1325	-nan
0	397541	1326	-nan
0	397541	1327	-nan
0	397541	1328	-nan
0	397541	1329	-nan
0	397541	1330	-nan
0	397541	1331	-nan
0	397541	1332	-nan
0	397541	1333	-nan
0	397541	1334	-nan
0	397541	1335	-nan
0	397541	1336	-nan
0	397541	1337	-nan
0	397541	1338	-nan
0	397541	1339	-nan
0	397541	1340	-nan
0	397541	1341	0
0	397541	1342	-nan
0	397541	1343	0
0	397541	1344	-nan
0	397541	1345	-nan
0	397541	1346	-nan
0	397541	1347	-nan
0	397541	1348	-nan
0	397541	1349	0
0	397541	1350	0
0	397541	1351	-nan
0	397541	1352	0
0	397541	1353	-nan
0	397541	1354	0
0	397541	1355	0
0	397541	1356	-nan
0	397541	1357	0
0	397541	1358	-nan
0	397541	1359	0
0	397541	1360	-nan
0	397541	1361	-nan
0	397541	1362	-nan
0	397541	1363	-nan
0	397541	1364	-nan
0	397541	1365	-nan
0	397541	1366	-nan
0	397541	1367	-nan
0	397541	1368	-nan
0	397541	1369	0
0	397541	1370	-nan
0	397541	1371	-nan
0	397541	1372	-nan
0	397541	1373	0
0	397541	1374	-nan
0	397541	1375	-nan
0	397541	1376	-nan
0	397541	1377	-nan
0	397541	1378	-nan
0	397541	1379	-nan
0	397541	1380	-nan
0	397541	1381	-nan
0	397541	1382	-nan
0	397541	1383	-nan
0	397541	1384	-nan
0	397541	1385	0
0	397541	1386	-nan
0	397541	1387	-nan
0	397541	1388	-nan
0	397541	1389	-nan
0	397541	1390	-nan
0	397541	1391	-nan
0	397541	1392	0
0	397541	1393	-nan
0	397541	1394	-nan
0	397541	1395	-nan
0	397541	1396	-nan
0	397541	1397	0
0	397541	1398	-nan
0	397541	1399	-nan
0	397541	1400	-nan
0	397541	1401	-nan
0	397541	1402	0
0	397541	1403	-nan
0	397541	1404	-nan
0	397541	1405	-nan
0	397541	1406	0
0	397541	1407	-nan
0	397541	1408	-nan
0	397541	1409	-nan
0	397541	1410	-nan
0	397541	1411	-nan
0	397541	1412	0
0	397541	1413	-nan
0	397541	1414	-nan
0	397541	1415	-nan
0	397541	1416	-nan
0	397541	1417	-nan
0	397541	1418	-nan
0	397541	1419	-nan
0	397541	1420	-nan
0	397541	1421	-nan
0	397541	1422	0
0	397541	1423	-nan
0	397541	1424	-nan
0	397541	1425	-nan
0	397541	1426	-nan
0	397541	1427	-nan
0	397541	1428	-nan
0	397541	1429	-nan
0	397541	1430	-nan
0	397541	1431	0
0	397541	1432	-nan
0	397541	1433	-nan
0	397541	1434	-nan
0	397541	1435	-nan
0	397541	1436	-nan
0	397541	1437	-nan
0	397541	1438	-nan
0	397541	1439	-nan
0	397541	1440	0
0	397541	1441	0
0	397541	1442	-nan
0	397541	1443	-nan
0	397541	1444	-nan
0	397541	1445	-nan
0	397541	1446	-nan
0	397541	1447	-nan
0	397541	1448	-nan
0	397541	1449	-nan
0	397541	1450	-nan
0	397541	1451	-nan
0	397541	1452	0
0	397541	1453	-nan
0	397541	1454	-nan
0	397541	1455	0
0	397541	1456	-nan
0	397541	1457	0
0	397541	1458	0.33333333333333
0	397541	1459	-nan
0	397541	1460	-nan
0	397541	1461	-nan
0	397541	1462	-nan
0	397541	1463	-nan
0	397541	1464	-nan
0	397541	1465	-nan
0	397541	1466	0
0	397541	1467	-nan
0	397541	1468	-nan
0	397541	1469	-nan
0	397541	1470	-nan
0	397541	1471	-nan
0	397541	1472	0
0	397541	1473	0
0	397541	1474	-nan
0	397541	1475	0
0	397541	1476	0
0	397541	1477	0
0	397541	1478	-nan
0	397541	1479	-nan
0	397541	1480	-nan
0	397541	1481	-nan
0	397541	1482	0
0	397541	1483	-nan
0	397541	1484	-nan
0	397541	1485	-nan
0	397541	1486	0
0	397541	1487	-nan
0	397541	1488	0
0	397541	1489	-nan
0	397541	1490	-nan
0	397541	1491	-nan
0	397541	1492	-nan
0	397541	1493	-nan
0	397541	1494	-nan
0	397541	1495	-nan
0	397541	1496	0
0	397541	1497	0
0	397541	1498	0
0	397541	1499	-nan
0	397541	1500	0
0	397541	1501	0
0	397541	1502	0
0	397541	1503	0
0	397541	1504	-nan
0	397541	1505	-nan
0	397541	1506	-nan
0	397541	1507	0
0	397541	1508	0
0	397541	1509	-nan
0	397541	1510	-nan
0	397541	1511	-nan
0	397541	1512	-nan
0	397541	1513	-nan
0	397541	1514	0
0	397541	1515	-nan
0	397541	1516	-nan
0	397541	1517	0
0	397541	1518	-nan
0	397541	1519	-nan
0	397541	1520	-nan
0	397541	1521	-nan
0	397541	1522	0
0	397541	1523	-nan
0	397541	1524	-nan
0	397541	1525	-nan
0	397541	1526	-nan
0	397541	1527	-nan
0	397541	1528	-nan
0	397541	1529	-nan
0	397541	1530	-nan
0	397541	1531	-nan
0	397541	1532	-nan
0	397541	1533	-nan
0	397541	1534	0
0	397541	1535	0
0	397541	1536	0
0	397541	1537	-nan
0	397541	1538	-nan
0	397541	1539	0
0	397541	1540	-nan
0	397541	1541	-nan
0	397541	1542	-nan
0	397541	1543	-nan
0	397541	1544	-nan
0	397541	1545	-nan
0	397541	1546	-nan
0	397541	1547	-nan
0	397541	1548	-nan
0	397541	1549	-nan
0	397541	1550	-nan
0	397541	1551	0
0	397541	1552	-nan
0	397541	1553	-nan
0	397541	1554	-nan
0	397541	1555	-nan
0	397541	1556	0
0	397541	1557	-nan
0	397541	1558	-nan
0	397541	1559	-nan
0	397541	1560	-nan
0	397541	1561	0
0	397541	1562	-nan
0	397541	1563	-nan
0	397541	1564	-nan
0	397541	1565	-nan
0	397541	1566	-nan
0	397541	1567	-nan
0	397541	1568	-nan
0	397541	1569	0
0	397541	1570	-nan
0	397541	1571	-nan
0	397541	1572	-nan
0	397541	1573	0
0	397541	1574	-nan
0	397541	1575	0
0	397541	1576	-nan
0	397541	1577	-nan
0	397541	1578	-nan
0	397541	1579	-nan
0	397541	1580	-nan
0	397541	1581	-nan
0	397541	1582	-nan
0	397541	1583	0
0	397541	1584	-nan
0	397541	1585	-nan
0	397541	1586	-nan
0	397541	1587	0
0	397541	1588	0
0	397541	1589	-nan
0	397541	1590	-nan
0	397541	1591	0
0	397541	1592	-nan
0	397541	1593	-nan
0	397541	1594	-nan
0	397541	1595	-nan
0	397541	1596	-nan
0	397541	1597	-nan
0	397541	1598	-nan
0	397541	1599	-nan
0	397541	1600	0
0	397541	1601	-nan
0	397541	1602	0
0	397541	1603	-nan
0	397541	1604	0
0	397541	1605	-nan
0	397541	1606	-nan
0	397541	1607	-nan
0	397541	1608	-nan
0	397541	1609	-nan
0	397541	1610	-nan
0	397541	1611	-nan
0	397541	1612	0
0	397541	1613	-nan
0	397541	1614	0
0	397541	1615	-nan
0	397541	1616	-nan
0	397541	1617	-nan
0	397541	1618	-nan
0	397541	1619	-nan
0	397541	1620	-nan
0	397541	1621	-nan
0	397541	1622	-nan
0	397541	1623	-nan
0	397541	1624	-nan
0	397541	1625	0
0	397541	1626	0
0	397541	1627	-nan
0	397541	1628	0
0	397541	1629	0
0	397541	1630	-nan
0	397541	1631	-nan
0	397541	1632	-nan
0	397541	1633	0
0	397541	1634	-nan
0	397541	1635	-nan
0	397541	1636	-nan
0	397541	1637	0
0	397541	1638	-nan
0	397541	1639	-nan
0	397541	1640	-nan
0	397541	1641	-nan
0	397541	1642	-nan
0	397541	1643	-nan
0	397541	1644	-nan
0	397541	1645	-nan
0	397541	1646	-nan
0	397541	1647	-nan
0	397541	1648	-nan
0	397541	1649	-nan
0	397541	1650	-nan
0	397541	1651	-nan
0	397541	1652	-nan
0	397541	1653	0
0	397541	1654	-nan
0	397541	1655	0
0	397541	1656	0
0	397541	1657	-nan
0	397541	1658	0
0	397541	1659	-nan
0	397541	1660	-nan
0	397541	1661	-nan
0	397541	1662	0
0	397541	1663	-nan
0	397541	1664	0
0	397541	1665	0
0	397541	1666	0
0	397541	1667	0
0	397541	1668	-nan
0	397541	1669	-nan
0	397541	1670	0
0	397541	1671	-nan
0	397541	1672	0
0	397541	1673	-nan
0	397541	1674	0
0	397541	1675	0