version 2
run General-0-20150602-14:49:40-8277
attr D lce
attr F spr
attr R lru
attr a 0.5
attr configname General
attr datetime 20150602-14:49:40
attr experiment General
attr inifile omnetpp.ini.nocost
attr iterationvars "$net=abilene, $rep=0, $a=0.5, $F=spr, $ttl=1000, $D=lce, $R=lru"
attr iterationvars2 "$net=abilene, $rep=0, $a=0.5, $F=spr, $ttl=1000, $D=lce, $R=lru, $repetition=0"
attr measurement "$net=abilene, $rep=0, $a=0.5, $F=spr, $ttl=1000, $D=lce, $R=lru"
attr net abilene
attr network networks.${net=abilene}_network
attr processid 8277
attr rep 0
attr repetition 0
attr replication #0
attr resultdir results
attr runnumber 0
attr seedset 0
attr ttl 1000

vector 0  abilene_network.node[0].content_store  hit_node[0]  ETV
0	163412	1	0
0	163412	2	0
0	163412	3	0.33333333333333
0	163412	4	0.5
0	163412	5	0.33333333333333
0	163412	6	-nan
0	163412	7	-nan
0	163412	8	0
0	163412	9	0
0	163412	10	0
0	163412	11	-nan
0	163412	12	-nan
0	163412	13	-nan
0	163412	14	-nan
0	163412	15	0
0	163412	16	-nan
0	163412	17	0.33333333333333
0	163412	18	-nan
0	163412	19	-nan
0	163412	20	0
0	163412	21	-nan
0	163412	22	-nan
0	163412	23	0
0	163412	24	0
0	163412	25	-nan
0	163412	26	0
0	163412	27	-nan
0	163412	28	-nan
0	163412	29	-nan
0	163412	30	0
0	163412	31	0
0	163412	32	0
0	163412	33	-nan
0	163412	34	-nan
0	163412	35	0
0	163412	36	-nan
0	163412	37	-nan
0	163412	38	-nan
0	163412	39	-nan
0	163412	40	0
0	163412	41	-nan
0	163412	42	0.6
0	163412	43	-nan
0	163412	44	-nan
0	163412	45	-nan
0	163412	46	0
0	163412	47	-nan
0	163412	48	0
0	163412	49	-nan
0	163412	50	-nan
0	163412	51	-nan
0	163412	52	0
0	163412	53	0
0	163412	54	0
0	163412	55	0
0	163412	56	-nan
0	163412	57	-nan
0	163412	58	0
0	163412	59	-nan
0	163412	60	-nan
0	163412	61	-nan
0	163412	62	-nan
0	163412	63	-nan
0	163412	64	0
0	163412	65	-nan
0	163412	66	-nan
0	163412	67	-nan
0	163412	68	-nan
0	163412	69	-nan
0	163412	70	-nan
0	163412	71	-nan
0	163412	72	-nan
0	163412	73	-nan
0	163412	74	-nan
0	163412	75	-nan
0	163412	76	-nan
0	163412	77	0
0	163412	78	-nan
0	163412	79	-nan
0	163412	80	-nan
0	163412	81	-nan
0	163412	82	0
0	163412	83	-nan
0	163412	84	-nan
0	163412	85	-nan
0	163412	86	-nan
0	163412	87	-nan
0	163412	88	-nan
0	163412	89	-nan
0	163412	90	0
0	163412	91	0
0	163412	92	-nan
0	163412	93	0.5
0	163412	94	0
0	163412	95	-nan
0	163412	96	-nan
0	163412	97	-nan
0	163412	98	-nan
0	163412	99	-nan
0	163412	100	-nan
0	163412	101	-nan
0	163412	102	-nan
0	163412	103	-nan
0	163412	104	-nan
0	163412	105	-nan
0	163412	106	0
0	163412	107	-nan
0	163412	108	0
0	163412	109	-nan
0	163412	110	-nan
0	163412	111	-nan
0	163412	112	-nan
0	163412	113	-nan
0	163412	114	0
0	163412	115	-nan
0	163412	116	-nan
0	163412	117	-nan
0	163412	118	-nan
0	163412	119	0
0	163412	120	0
0	163412	121	0
0	163412	122	0
0	163412	123	-nan
0	163412	124	-nan
0	163412	125	-nan
0	163412	126	-nan
0	163412	127	-nan
0	163412	128	0
0	163412	129	-nan
0	163412	130	0.5
0	163412	131	-nan
0	163412	132	-nan
0	163412	133	-nan
0	163412	134	0
0	163412	135	-nan
0	163412	136	-nan
0	163412	137	-nan
0	163412	138	-nan
0	163412	139	-nan
0	163412	140	-nan
0	163412	141	0
0	163412	142	-nan
0	163412	143	-nan
0	163412	144	0
0	163412	145	-nan
0	163412	146	-nan
0	163412	147	0
0	163412	148	0
0	163412	149	-nan
0	163412	150	0
0	163412	151	-nan
0	163412	152	-nan
0	163412	153	-nan
0	163412	154	-nan
0	163412	155	-nan
0	163412	156	-nan
0	163412	157	-nan
0	163412	158	-nan
0	163412	159	-nan
0	163412	160	-nan
0	163412	161	-nan
0	163412	162	0
0	163412	163	-nan
0	163412	164	-nan
0	163412	165	-nan
0	163412	166	0
0	163412	167	-nan
0	163412	168	-nan
0	163412	169	-nan
0	163412	170	0
0	163412	171	-nan
0	163412	172	-nan
0	163412	173	-nan
0	163412	174	-nan
0	163412	175	-nan
0	163412	176	-nan
0	163412	177	0
0	163412	178	-nan
0	163412	179	-nan
0	163412	180	-nan
0	163412	181	-nan
0	163412	182	-nan
0	163412	183	-nan
0	163412	184	-nan
0	163412	185	-nan
0	163412	186	0
0	163412	187	-nan
0	163412	188	-nan
0	163412	189	-nan
0	163412	190	-nan
0	163412	191	-nan
0	163412	192	-nan
0	163412	193	-nan
0	163412	194	-nan
0	163412	195	-nan
0	163412	196	-nan
0	163412	197	-nan
0	163412	198	-nan
0	163412	199	-nan
0	163412	200	0
0	163412	201	-nan
0	163412	202	-nan
0	163412	203	0
0	163412	204	-nan
0	163412	205	-nan
0	163412	206	0
0	163412	207	-nan
0	163412	208	0
0	163412	209	0.66666666666667
0	163412	210	-nan
0	163412	211	-nan
0	163412	212	0
0	163412	213	-nan
0	163412	214	-nan
0	163412	215	-nan
0	163412	216	-nan
0	163412	217	-nan
0	163412	218	0
0	163412	219	-nan
0	163412	220	-nan
0	163412	221	-nan
0	163412	222	-nan
0	163412	223	-nan
0	163412	224	-nan
0	163412	225	-nan
0	163412	226	-nan
0	163412	227	-nan
0	163412	228	-nan
0	163412	229	0
0	163412	230	-nan
0	163412	231	-nan
0	163412	232	-nan
0	163412	233	-nan
0	163412	234	-nan
0	163412	235	-nan
0	163412	236	-nan
0	163412	237	-nan
0	163412	238	-nan
0	163412	239	-nan
0	163412	240	0
0	163412	241	-nan
0	163412	242	-nan
0	163412	243	-nan
0	163412	244	-nan
0	163412	245	0
0	163412	246	-nan
0	163412	247	0
0	163412	248	0
0	163412	249	0
0	163412	250	-nan
0	163412	251	0
0	163412	252	-nan
0	163412	253	0
0	163412	254	-nan
0	163412	255	-nan
0	163412	256	-nan
0	163412	257	0
0	163412	258	-nan
0	163412	259	-nan
0	163412	260	-nan
0	163412	261	-nan
0	163412	262	-nan
0	163412	263	-nan
0	163412	264	-nan
0	163412	265	-nan
0	163412	266	-nan
0	163412	267	-nan
0	163412	268	-nan
0	163412	269	-nan
0	163412	270	-nan
0	163412	271	0
0	163412	272	-nan
0	163412	273	-nan
0	163412	274	-nan
0	163412	275	-nan
0	163412	276	-nan
0	163412	277	0
0	163412	278	-nan
0	163412	279	-nan
0	163412	280	-nan
0	163412	281	-nan
0	163412	282	-nan
0	163412	283	-nan
0	163412	284	-nan
0	163412	285	-nan
0	163412	286	-nan
0	163412	287	-nan
0	163412	288	-nan
0	163412	289	-nan
0	163412	290	-nan
0	163412	291	-nan
0	163412	292	0
0	163412	293	0
0	163412	294	-nan
0	163412	295	-nan
0	163412	296	-nan
0	163412	297	-nan
0	163412	298	-nan
0	163412	299	-nan
0	163412	300	0
0	163412	301	-nan
0	163412	302	-nan
0	163412	303	-nan
0	163412	304	-nan
0	163412	305	-nan
0	163412	306	-nan
0	163412	307	-nan
0	163412	308	-nan
0	163412	309	0
0	163412	310	-nan
0	163412	311	-nan
0	163412	312	-nan
0	163412	313	-nan
0	163412	314	-nan
0	163412	315	-nan
0	163412	316	-nan
0	163412	317	-nan
0	163412	318	0
0	163412	319	-nan
0	163412	320	-nan
0	163412	321	-nan
0	163412	322	-nan
0	163412	323	-nan
0	163412	324	-nan
0	163412	325	-nan
0	163412	326	-nan
0	163412	327	-nan
0	163412	328	-nan
0	163412	329	-nan
0	163412	330	-nan
0	163412	331	-nan
0	163412	332	-nan
0	163412	333	0
0	163412	334	-nan
0	163412	335	-nan
0	163412	336	-nan
0	163412	337	-nan
0	163412	338	-nan
0	163412	339	-nan
0	163412	340	-nan
0	163412	341	-nan
0	163412	342	0
0	163412	343	-nan
0	163412	344	-nan
0	163412	345	-nan
0	163412	346	-nan
0	163412	347	-nan
0	163412	348	-nan
0	163412	349	-nan
0	163412	350	-nan
0	163412	351	-nan
0	163412	352	-nan
0	163412	353	0
0	163412	354	0
0	163412	355	-nan
0	163412	356	-nan
0	163412	357	-nan
0	163412	358	-nan
0	163412	359	-nan
0	163412	360	-nan
0	163412	361	-nan
0	163412	362	-nan
0	163412	363	-nan
0	163412	364	0
0	163412	365	-nan
0	163412	366	-nan
0	163412	367	0
0	163412	368	-nan
0	163412	369	-nan
0	163412	370	-nan
0	163412	371	-nan
0	163412	372	-nan
0	163412	373	-nan
0	163412	374	-nan
0	163412	375	-nan
0	163412	376	-nan
0	163412	377	-nan
0	163412	378	-nan
0	163412	379	-nan
0	163412	380	-nan
0	163412	381	-nan
0	163412	382	-nan
0	163412	383	-nan
0	163412	384	-nan
0	163412	385	0
0	163412	386	-nan
0	163412	387	-nan
0	163412	388	-nan
0	163412	389	-nan
0	163412	390	-nan
0	163412	391	-nan
0	163412	392	-nan
0	163412	393	-nan
0	163412	394	-nan
0	163412	395	-nan
0	163412	396	-nan
0	163412	397	-nan
0	163412	398	-nan
0	163412	399	-nan
0	163412	400	-nan
0	163412	401	-nan
0	163412	402	-nan
0	163412	403	-nan
0	163412	404	-nan
0	163412	405	-nan
0	163412	406	-nan
0	163412	407	-nan
0	163412	408	-nan
0	163412	409	-nan
0	163412	410	-nan
0	163412	411	0
0	163412	412	-nan
0	163412	413	-nan
0	163412	414	0
0	163412	415	0
0	163412	416	-nan
0	163412	417	-nan
0	163412	418	0
0	163412	419	-nan
0	163412	420	-nan
0	163412	421	-nan
0	163412	422	-nan
0	163412	423	-nan
0	163412	424	0
0	163412	425	-nan
0	163412	426	-nan
0	163412	427	0
0	163412	428	-nan
0	163412	429	-nan
0	163412	430	-nan
0	163412	431	-nan
0	163412	432	-nan
0	163412	433	-nan
0	163412	434	-nan
0	163412	435	-nan
0	163412	436	-nan
0	163412	437	-nan
0	163412	438	-nan
0	163412	439	-nan
0	163412	440	-nan
0	163412	441	-nan
0	163412	442	-nan
0	163412	443	-nan
0	163412	444	-nan
0	163412	445	-nan
0	163412	446	-nan
0	163412	447	-nan
0	163412	448	-nan
0	163412	449	0
0	163412	450	0
0	163412	451	-nan
0	163412	452	-nan
0	163412	453	-nan
0	163412	454	0.5
0	163412	455	-nan
0	163412	456	-nan
0	163412	457	0
0	163412	458	-nan
0	163412	459	0
0	163412	460	-nan
0	163412	461	-nan
0	163412	462	-nan
0	163412	463	-nan
0	163412	464	-nan
0	163412	465	-nan
0	163412	466	-nan
0	163412	467	-nan
0	163412	468	0
0	163412	469	-nan
0	163412	470	-nan
0	163412	471	-nan
0	163412	472	-nan
0	163412	473	-nan
0	163412	474	-nan
0	163412	475	-nan
0	163412	476	-nan
0	163412	477	-nan
0	163412	478	-nan
0	163412	479	0
0	163412	480	-nan
0	163412	481	-nan
0	163412	482	-nan
0	163412	483	-nan
0	163412	484	-nan
0	163412	485	-nan
0	163412	486	-nan
0	163412	487	-nan
0	163412	488	-nan
0	163412	489	0
0	163412	490	-nan
0	163412	491	0
0	163412	492	-nan
0	163412	493	-nan
0	163412	494	0
0	163412	495	-nan
0	163412	496	-nan
0	163412	497	-nan
0	163412	498	-nan
0	163412	499	-nan
0	163412	500	-nan
0	163412	501	-nan
0	163412	502	0.5
0	163412	503	-nan
0	163412	504	0
0	163412	505	-nan
0	163412	506	-nan
0	163412	507	0
0	163412	508	0
0	163412	509	-nan
0	163412	510	0
0	163412	511	-nan
0	163412	512	-nan
0	163412	513	-nan
0	163412	514	0
0	163412	515	-nan
0	163412	516	-nan
0	163412	517	-nan
0	163412	518	-nan
0	163412	519	-nan
0	163412	520	-nan
0	163412	521	-nan
0	163412	522	-nan
0	163412	523	-nan
0	163412	524	-nan
0	163412	525	-nan
0	163412	526	-nan
0	163412	527	-nan
0	163412	528	-nan
0	163412	529	-nan
0	163412	530	-nan
0	163412	531	-nan
0	163412	532	-nan
0	163412	533	-nan
0	163412	534	-nan
0	163412	535	-nan
0	163412	536	-nan
0	163412	537	-nan
0	163412	538	-nan
0	163412	539	-nan
0	163412	540	-nan
0	163412	541	-nan
0	163412	542	-nan
0	163412	543	-nan
0	163412	544	-nan
0	163412	545	-nan
0	163412	546	-nan
0	163412	547	0
0	163412	548	-nan
0	163412	549	-nan
0	163412	550	-nan
0	163412	551	-nan
0	163412	552	-nan
0	163412	553	-nan
0	163412	554	-nan
0	163412	555	-nan
0	163412	556	-nan
0	163412	557	-nan
0	163412	558	-nan
0	163412	559	-nan
0	163412	560	0
0	163412	561	-nan
0	163412	562	-nan
0	163412	563	-nan
0	163412	564	-nan
0	163412	565	-nan
0	163412	566	-nan
0	163412	567	-nan
0	163412	568	0
0	163412	569	-nan
0	163412	570	-nan
0	163412	571	-nan
0	163412	572	-nan
0	163412	573	-nan
0	163412	574	-nan
0	163412	575	-nan
0	163412	576	-nan
0	163412	577	-nan
0	163412	578	-nan
0	163412	579	-nan
0	163412	580	-nan
0	163412	581	-nan
0	163412	582	-nan
0	163412	583	-nan
0	163412	584	-nan
0	163412	585	-nan
0	163412	586	-nan
0	163412	587	-nan
0	163412	588	-nan
0	163412	589	-nan
0	163412	590	-nan
0	163412	591	0
0	163412	592	-nan
0	163412	593	-nan
0	163412	594	-nan
0	163412	595	-nan
0	163412	596	-nan
0	163412	597	0
0	163412	598	0
0	163412	599	-nan
0	163412	600	-nan
0	163412	601	-nan
0	163412	602	-nan
0	163412	603	-nan
0	163412	604	-nan
0	163412	605	-nan
0	163412	606	-nan
0	163412	607	-nan
0	163412	608	-nan
0	163412	609	-nan
0	163412	610	-nan
0	163412	611	-nan
0	163412	612	-nan
0	163412	613	-nan
0	163412	614	-nan
0	163412	615	-nan
0	163412	616	-nan
0	163412	617	-nan
0	163412	618	-nan
0	163412	619	-nan
0	163412	620	-nan
0	163412	621	-nan
0	163412	622	-nan
0	163412	623	-nan
0	163412	624	-nan
0	163412	625	-nan
0	163412	626	-nan
0	163412	627	-nan
0	163412	628	-nan
0	163412	629	-nan
0	163412	630	-nan
0	163412	631	-nan
0	163412	632	-nan
0	163412	633	-nan
0	163412	634	-nan
0	163412	635	-nan
0	163412	636	-nan
0	163412	637	-nan
0	163412	638	0
0	163412	639	-nan
0	163412	640	-nan
0	163412	641	-nan
0	163412	642	-nan
0	163412	643	-nan
0	163412	644	-nan
0	163412	645	-nan
0	163412	646	-nan
0	163412	647	-nan
0	163412	648	-nan
0	163412	649	-nan
0	163412	650	0
0	163412	651	-nan
0	163412	652	0
0	163412	653	0
0	163412	654	-nan
0	163412	655	-nan
0	163412	656	-nan
0	163412	657	-nan
0	163412	658	-nan
0	163412	659	-nan
0	163412	660	-nan
0	163412	661	0
0	163412	662	-nan
0	163412	663	-nan
0	163412	664	0
0	163412	665	-nan
0	163412	666	-nan
0	163412	667	0
0	163412	668	-nan
0	163412	669	-nan
0	163412	670	-nan
0	163412	671	-nan
0	163412	672	-nan
0	163412	673	-nan
0	163412	674	-nan
0	163412	675	-nan
0	163412	676	0
0	163412	677	-nan
0	163412	678	0
0	163412	679	-nan
0	163412	680	-nan
0	163412	681	-nan
0	163412	682	-nan
0	163412	683	0
0	163412	684	-nan
0	163412	685	-nan
0	163412	686	-nan
0	163412	687	-nan
0	163412	688	-nan
0	163412	689	-nan
0	163412	690	-nan
0	163412	691	-nan
0	163412	692	-nan
0	163412	693	-nan
0	163412	694	-nan
0	163412	695	-nan
0	163412	696	-nan
0	163412	697	-nan
0	163412	698	-nan
0	163412	699	-nan
0	163412	700	-nan
0	163412	701	-nan
0	163412	702	0
0	163412	703	-nan
0	163412	704	-nan
0	163412	705	-nan
0	163412	706	-nan
0	163412	707	-nan
0	163412	708	-nan
0	163412	709	-nan
0	163412	710	-nan
0	163412	711	-nan
0	163412	712	-nan
0	163412	713	-nan
0	163412	714	-nan
0	163412	715	-nan
0	163412	716	-nan
0	163412	717	-nan
0	163412	718	-nan
0	163412	719	-nan
0	163412	720	-nan
0	163412	721	-nan
0	163412	722	-nan
0	163412	723	-nan
0	163412	724	-nan
0	163412	725	-nan
0	163412	726	-nan
0	163412	727	-nan
0	163412	728	-nan
0	163412	729	0
0	163412	730	-nan
0	163412	731	-nan
0	163412	732	-nan
0	163412	733	-nan
0	163412	734	-nan
0	163412	735	-nan
0	163412	736	0
0	163412	737	-nan
0	163412	738	-nan
0	163412	739	-nan
0	163412	740	-nan
0	163412	741	-nan
0	163412	742	0
0	163412	743	-nan
0	163412	744	0
0	163412	745	-nan
0	163412	746	-nan
0	163412	747	-nan
0	163412	748	0
0	163412	749	-nan
0	163412	750	0
0	163412	751	0
0	163412	752	-nan
0	163412	753	-nan
0	163412	754	-nan
0	163412	755	-nan
0	163412	756	-nan
0	163412	757	-nan
0	163412	758	-nan
0	163412	759	-nan
0	163412	760	-nan
0	163412	761	0
0	163412	762	-nan
0	163412	763	-nan
0	163412	764	0
0	163412	765	0
0	163412	766	-nan
0	163412	767	-nan
0	163412	768	-nan
0	163412	769	-nan
0	163412	770	-nan
0	163412	771	-nan
0	163412	772	-nan
0	163412	773	-nan
0	163412	774	-nan
0	163412	775	-nan
0	163412	776	-nan
0	163412	777	0
0	163412	778	-nan
0	163412	779	-nan
0	163412	780	-nan
0	163412	781	-nan
0	163412	782	-nan
0	163412	783	-nan
0	163412	784	-nan
0	163412	785	-nan
0	163412	786	-nan
0	163412	787	-nan
0	163412	788	-nan
0	163412	789	0
0	163412	790	0
0	163412	791	-nan
0	163412	792	-nan
0	163412	793	-nan
0	163412	794	-nan
0	163412	795	-nan
0	163412	796	-nan
0	163412	797	-nan
0	163412	798	-nan
0	163412	799	-nan
0	163412	800	-nan
0	163412	801	-nan
0	163412	802	-nan
0	163412	803	-nan
0	163412	804	-nan
0	163412	805	-nan
0	163412	806	-nan
0	163412	807	-nan
0	163412	808	-nan
0	163412	809	-nan
0	163412	810	0
0	163412	811	-nan
0	163412	812	-nan
0	163412	813	-nan
0	163412	814	-nan
0	163412	815	-nan
0	163412	816	0
0	163412	817	-nan
0	163412	818	-nan
0	163412	819	-nan
0	163412	820	-nan
0	163412	821	-nan
0	163412	822	-nan
0	163412	823	0
0	163412	824	-nan
0	163412	825	-nan
0	163412	826	-nan
0	163412	827	-nan
0	163412	828	-nan
0	163412	829	-nan
0	163412	830	-nan
0	163412	831	-nan
0	163412	832	-nan
0	163412	833	-nan
0	163412	834	-nan
0	163412	835	-nan
0	163412	836	-nan
0	163412	837	-nan
0	163412	838	-nan
0	163412	839	-nan
0	163412	840	-nan
0	163412	841	-nan
0	163412	842	-nan
0	163412	843	-nan
0	163412	844	-nan
0	163412	845	-nan
0	163412	846	-nan
0	163412	847	-nan
0	163412	848	-nan
0	163412	849	-nan
0	163412	850	-nan
0	163412	851	0
0	163412	852	-nan
0	163412	853	-nan
0	163412	854	-nan
0	163412	855	0
0	163412	856	-nan
0	163412	857	-nan
0	163412	858	-nan
0	163412	859	-nan
0	163412	860	-nan
0	163412	861	0
0	163412	862	-nan
0	163412	863	-nan
0	163412	864	0
0	163412	865	-nan
0	163412	866	-nan
0	163412	867	0
0	163412	868	-nan
0	163412	869	-nan
0	163412	870	-nan
0	163412	871	-nan
0	163412	872	-nan
0	163412	873	-nan
0	163412	874	-nan
0	163412	875	-nan
0	163412	876	-nan
0	163412	877	-nan
0	163412	878	-nan
0	163412	879	-nan
0	163412	880	-nan
0	163412	881	-nan
0	163412	882	-nan
0	163412	883	-nan
0	163412	884	-nan
0	163412	885	-nan
0	163412	886	-nan
0	163412	887	-nan
0	163412	888	-nan
0	163412	889	-nan
0	163412	890	-nan
0	163412	891	0
0	163412	892	-nan
0	163412	893	-nan
0	163412	894	-nan
0	163412	895	-nan
0	163412	896	-nan
0	163412	897	-nan
0	163412	898	-nan
0	163412	899	0
0	163412	900	-nan
0	163412	901	-nan
0	163412	902	-nan
0	163412	903	0
0	163412	904	-nan
0	163412	905	-nan
0	163412	906	-nan
0	163412	907	-nan
0	163412	908	-nan
0	163412	909	-nan
0	163412	910	0
0	163412	911	-nan
0	163412	912	-nan
0	163412	913	-nan
0	163412	914	-nan
0	163412	915	-nan
0	163412	916	-nan
0	163412	917	-nan
0	163412	918	-nan
0	163412	919	-nan
0	163412	920	-nan
0	163412	921	-nan
0	163412	922	-nan
0	163412	923	-nan
0	163412	924	-nan
0	163412	925	-nan
0	163412	926	0
0	163412	927	-nan
0	163412	928	-nan
0	163412	929	-nan
0	163412	930	-nan
0	163412	931	0
0	163412	932	0
0	163412	933	-nan
0	163412	934	-nan
0	163412	935	-nan
0	163412	936	-nan
0	163412	937	-nan
0	163412	938	-nan
0	163412	939	-nan
0	163412	940	-nan
0	163412	941	-nan
0	163412	942	-nan
0	163412	943	-nan
0	163412	944	-nan
0	163412	945	0
0	163412	946	-nan
0	163412	947	-nan
0	163412	948	-nan
0	163412	949	-nan
0	163412	950	-nan
0	163412	951	-nan
0	163412	952	-nan
0	163412	953	-nan
0	163412	954	-nan
0	163412	955	-nan
0	163412	956	-nan
0	163412	957	-nan
0	163412	958	-nan
0	163412	959	-nan
0	163412	960	-nan
0	163412	961	-nan
0	163412	962	-nan
0	163412	963	-nan
0	163412	964	-nan
0	163412	965	-nan
0	163412	966	-nan
0	163412	967	-nan
0	163412	968	0
0	163412	969	-nan
0	163412	970	-nan
0	163412	971	-nan
0	163412	972	-nan
0	163412	973	-nan
0	163412	974	-nan
0	163412	975	-nan
0	163412	976	-nan
0	163412	977	-nan
0	163412	978	-nan
0	163412	979	-nan
0	163412	980	0
0	163412	981	-nan
0	163412	982	-nan
0	163412	983	-nan
0	163412	984	-nan
0	163412	985	-nan
0	163412	986	-nan
0	163412	987	-nan
0	163412	988	-nan
0	163412	989	-nan
0	163412	990	-nan
0	163412	991	0
0	163412	992	-nan
0	163412	993	-nan
0	163412	994	-nan
0	163412	995	-nan
0	163412	996	-nan
0	163412	997	0
0	163412	998	-nan
0	163412	999	-nan
0	163412	1000	-nan
0	163412	1001	-nan
0	163412	1002	-nan
0	163412	1003	-nan
0	163412	1004	-nan
0	163412	1005	-nan
0	163412	1006	-nan
0	163412	1007	-nan
0	163412	1008	-nan
0	163412	1009	-nan
0	163412	1010	0
0	163412	1011	-nan
0	163412	1012	-nan
0	163412	1013	-nan
0	163412	1014	-nan
0	163412	1015	-nan
0	163412	1016	-nan
0	163412	1017	-nan
0	163412	1018	-nan
0	163412	1019	-nan
0	163412	1020	-nan
0	163412	1021	0
0	163412	1022	-nan
0	163412	1023	0
0	163412	1024	-nan
0	163412	1025	-nan
0	163412	1026	0
0	163412	1027	-nan
0	163412	1028	-nan
0	163412	1029	-nan
0	163412	1030	-nan
0	163412	1031	-nan
0	163412	1032	-nan
0	163412	1033	-nan
0	163412	1034	-nan
0	163412	1035	-nan
0	163412	1036	-nan
0	163412	1037	-nan
0	163412	1038	-nan
0	163412	1039	-nan
0	163412	1040	-nan
0	163412	1041	-nan
0	163412	1042	-nan
0	163412	1043	-nan
0	163412	1044	-nan
0	163412	1045	-nan
0	163412	1046	-nan
0	163412	1047	-nan
0	163412	1048	-nan
0	163412	1049	-nan
0	163412	1050	-nan
0	163412	1051	-nan
0	163412	1052	-nan
0	163412	1053	-nan
0	163412	1054	-nan
0	163412	1055	-nan
0	163412	1056	0
0	163412	1057	-nan
0	163412	1058	-nan
0	163412	1059	-nan
0	163412	1060	0
0	163412	1061	-nan
0	163412	1062	-nan
0	163412	1063	-nan
0	163412	1064	0
0	163412	1065	-nan
0	163412	1066	-nan
0	163412	1067	0
0	163412	1068	-nan
0	163412	1069	-nan
0	163412	1070	-nan
0	163412	1071	0
0	163412	1072	-nan
0	163412	1073	-nan
0	163412	1074	-nan
0	163412	1075	-nan
0	163412	1076	-nan
0	163412	1077	-nan
0	163412	1078	-nan
0	163412	1079	-nan
0	163412	1080	-nan
0	163412	1081	-nan
0	163412	1082	-nan
0	163412	1083	-nan
0	163412	1084	-nan
0	163412	1085	-nan
0	163412	1086	-nan
0	163412	1087	-nan
0	163412	1088	-nan
0	163412	1089	-nan
0	163412	1090	-nan
0	163412	1091	-nan
0	163412	1092	-nan
0	163412	1093	-nan
0	163412	1094	-nan
0	163412	1095	-nan
0	163412	1096	-nan
0	163412	1097	-nan
0	163412	1098	-nan
0	163412	1099	-nan
0	163412	1100	0
0	163412	1101	-nan
0	163412	1102	-nan
0	163412	1103	-nan
0	163412	1104	-nan
0	163412	1105	-nan
0	163412	1106	-nan
0	163412	1107	-nan
0	163412	1108	-nan
0	163412	1109	-nan
0	163412	1110	-nan
0	163412	1111	-nan
0	163412	1112	0
0	163412	1113	-nan
0	163412	1114	-nan
0	163412	1115	-nan
0	163412	1116	-nan
0	163412	1117	-nan
0	163412	1118	-nan
0	163412	1119	-nan
0	163412	1120	-nan
0	163412	1121	-nan
0	163412	1122	0
0	163412	1123	-nan
0	163412	1124	-nan
0	163412	1125	-nan
0	163412	1126	-nan
0	163412	1127	-nan
0	163412	1128	-nan
0	163412	1129	-nan
0	163412	1130	-nan
0	163412	1131	-nan
0	163412	1132	-nan
0	163412	1133	0
0	163412	1134	-nan
0	163412	1135	-nan
0	163412	1136	-nan
0	163412	1137	0
0	163412	1138	-nan
0	163412	1139	-nan
0	163412	1140	-nan
0	163412	1141	-nan
0	163412	1142	-nan
0	163412	1143	-nan
0	163412	1144	-nan
0	163412	1145	-nan
0	163412	1146	0
0	163412	1147	-nan
0	163412	1148	-nan
0	163412	1149	-nan
0	163412	1150	-nan
0	163412	1151	-nan
0	163412	1152	-nan
0	163412	1153	-nan
0	163412	1154	-nan
0	163412	1155	-nan
0	163412	1156	-nan
0	163412	1157	-nan
0	163412	1158	-nan
0	163412	1159	-nan
0	163412	1160	-nan
0	163412	1161	-nan
0	163412	1162	-nan
0	163412	1163	-nan
0	163412	1164	-nan
0	163412	1165	-nan
0	163412	1166	-nan
0	163412	1167	-nan
0	163412	1168	-nan
0	163412	1169	-nan
0	163412	1170	-nan
0	163412	1171	-nan
0	163412	1172	-nan
0	163412	1173	-nan
0	163412	1174	0
0	163412	1175	-nan
0	163412	1176	-nan
0	163412	1177	-nan
0	163412	1178	-nan
0	163412	1179	-nan
0	163412	1180	-nan
0	163412	1181	-nan
0	163412	1182	-nan
0	163412	1183	-nan
0	163412	1184	-nan
0	163412	1185	-nan
0	163412	1186	-nan
0	163412	1187	-nan
0	163412	1188	-nan
0	163412	1189	-nan
0	163412	1190	-nan
0	163412	1191	-nan
0	163412	1192	-nan
0	163412	1193	-nan
0	163412	1194	-nan
0	163412	1195	-nan
0	163412	1196	-nan
0	163412	1197	-nan
0	163412	1198	-nan
0	163412	1199	-nan
0	163412	1200	-nan
0	163412	1201	-nan
0	163412	1202	-nan
0	163412	1203	-nan
0	163412	1204	-nan
0	163412	1205	-nan
0	163412	1206	-nan
0	163412	1207	-nan
0	163412	1208	-nan
0	163412	1209	-nan
0	163412	1210	-nan
0	163412	1211	-nan
0	163412	1212	-nan
0	163412	1213	-nan
0	163412	1214	-nan
0	163412	1215	-nan
0	163412	1216	-nan
0	163412	1217	-nan
0	163412	1218	-nan
0	163412	1219	-nan
0	163412	1220	-nan
0	163412	1221	-nan
0	163412	1222	-nan
0	163412	1223	-nan
0	163412	1224	0
0	163412	1225	-nan
0	163412	1226	0
0	163412	1227	-nan
0	163412	1228	-nan
0	163412	1229	-nan
0	163412	1230	-nan
0	163412	1231	-nan
0	163412	1232	0
0	163412	1233	-nan
0	163412	1234	0
0	163412	1235	-nan
0	163412	1236	-nan
0	163412	1237	-nan
0	163412	1238	-nan
0	163412	1239	-nan
0	163412	1240	-nan
0	163412	1241	-nan
0	163412	1242	-nan
0	163412	1243	-nan
0	163412	1244	-nan
0	163412	1245	-nan
0	163412	1246	0
0	163412	1247	-nan
0	163412	1248	-nan
0	163412	1249	-nan
0	163412	1250	-nan
0	163412	1251	-nan
0	163412	1252	-nan
0	163412	1253	-nan
0	163412	1254	-nan
0	163412	1255	-nan
0	163412	1256	-nan
0	163412	1257	-nan
0	163412	1258	-nan
0	163412	1259	-nan
0	163412	1260	-nan
0	163412	1261	-nan
0	163412	1262	-nan
0	163412	1263	-nan
0	163412	1264	0
0	163412	1265	-nan
0	163412	1266	-nan
0	163412	1267	-nan
0	163412	1268	-nan
0	163412	1269	-nan
0	163412	1270	-nan
0	163412	1271	-nan
0	163412	1272	-nan
0	163412	1273	-nan
0	163412	1274	-nan
0	163412	1275	-nan
0	163412	1276	-nan
0	163412	1277	-nan
0	163412	1278	-nan
0	163412	1279	-nan
0	163412	1280	0
0	163412	1281	-nan
0	163412	1282	0
0	163412	1283	0
0	163412	1284	0
0	163412	1285	-nan
0	163412	1286	-nan
0	163412	1287	-nan
0	163412	1288	-nan
0	163412	1289	-nan
0	163412	1290	0
0	163412	1291	-nan
0	163412	1292	0
0	163412	1293	-nan
0	163412	1294	-nan
0	163412	1295	-nan
0	163412	1296	-nan
0	163412	1297	0
0	163412	1298	-nan
0	163412	1299	-nan
0	163412	1300	-nan
0	163412	1301	-nan
0	163412	1302	-nan
0	163412	1303	-nan
0	163412	1304	-nan
0	163412	1305	-nan
0	163412	1306	-nan
0	163412	1307	-nan
0	163412	1308	-nan
0	163412	1309	-nan
0	163412	1310	-nan
0	163412	1311	-nan
0	163412	1312	-nan
0	163412	1313	-nan
0	163412	1314	-nan
0	163412	1315	0
0	163412	1316	-nan
0	163412	1317	-nan
0	163412	1318	-nan
0	163412	1319	-nan
0	163412	1320	-nan
0	163412	1321	-nan
0	163412	1322	-nan
0	163412	1323	-nan
0	163412	1324	-nan
0	163412	1325	-nan
0	163412	1326	-nan
0	163412	1327	-nan
0	163412	1328	-nan
0	163412	1329	-nan
0	163412	1330	-nan
0	163412	1331	-nan
0	163412	1332	-nan
0	163412	1333	-nan
0	163412	1334	-nan
0	163412	1335	-nan
0	163412	1336	-nan
0	163412	1337	-nan
0	163412	1338	-nan
0	163412	1339	-nan
0	163412	1340	-nan
0	163412	1341	-nan
0	163412	1342	-nan
0	163412	1343	0
0	163412	1344	-nan
0	163412	1345	-nan
0	163412	1346	-nan
0	163412	1347	-nan
0	163412	1348	-nan
0	163412	1349	-nan
0	163412	1350	-nan
0	163412	1351	-nan
0	163412	1352	0
0	163412	1353	-nan
0	163412	1354	-nan
0	163412	1355	0
0	163412	1356	-nan
0	163412	1357	-nan
0	163412	1358	-nan
0	163412	1359	-nan
0	163412	1360	-nan
0	163412	1361	-nan
0	163412	1362	-nan
0	163412	1363	-nan
0	163412	1364	-nan
0	163412	1365	-nan
0	163412	1366	-nan
0	163412	1367	-nan
0	163412	1368	-nan
0	163412	1369	-nan
0	163412	1370	-nan
0	163412	1371	-nan
0	163412	1372	-nan
0	163412	1373	0
0	163412	1374	-nan
0	163412	1375	-nan
0	163412	1376	-nan
0	163412	1377	-nan
0	163412	1378	-nan
0	163412	1379	-nan
0	163412	1380	-nan
0	163412	1381	-nan
0	163412	1382	-nan
0	163412	1383	-nan
0	163412	1384	-nan
0	163412	1385	-nan
0	163412	1386	-nan
0	163412	1387	-nan
0	163412	1388	-nan
0	163412	1389	-nan
0	163412	1390	-nan
0	163412	1391	-nan
0	163412	1392	0
0	163412	1393	-nan
0	163412	1394	-nan
0	163412	1395	-nan
0	163412	1396	-nan
0	163412	1397	-nan
0	163412	1398	-nan
0	163412	1399	-nan
0	163412	1400	-nan
0	163412	1401	-nan
0	163412	1402	0
0	163412	1403	-nan
0	163412	1404	-nan
0	163412	1405	-nan
0	163412	1406	-nan
0	163412	1407	-nan
0	163412	1408	-nan
0	163412	1409	-nan
0	163412	1410	-nan
0	163412	1411	-nan
0	163412	1412	-nan
0	163412	1413	-nan
0	163412	1414	-nan
0	163412	1415	-nan
0	163412	1416	-nan
0	163412	1417	-nan
0	163412	1418	-nan
0	163412	1419	-nan
0	163412	1420	-nan
0	163412	1421	-nan
0	163412	1422	0
0	163412	1423	-nan
0	163412	1424	-nan
0	163412	1425	-nan
0	163412	1426	-nan
0	163412	1427	-nan
0	163412	1428	-nan
0	163412	1429	-nan
0	163412	1430	-nan
0	163412	1431	-nan
0	163412	1432	-nan
0	163412	1433	-nan
0	163412	1434	-nan
0	163412	1435	-nan
0	163412	1436	-nan
0	163412	1437	-nan
0	163412	1438	-nan
0	163412	1439	-nan
0	163412	1440	-nan
0	163412	1441	0
0	163412	1442	-nan
0	163412	1443	-nan
0	163412	1444	-nan
0	163412	1445	-nan
0	163412	1446	-nan
0	163412	1447	-nan
0	163412	1448	-nan
0	163412	1449	-nan
0	163412	1450	-nan
0	163412	1451	-nan
0	163412	1452	-nan
0	163412	1453	-nan
0	163412	1454	-nan
0	163412	1455	-nan
0	163412	1456	-nan
0	163412	1457	-nan
0	163412	1458	0.5
0	163412	1459	-nan
0	163412	1460	-nan
0	163412	1461	-nan
0	163412	1462	-nan
0	163412	1463	-nan
0	163412	1464	-nan
0	163412	1465	-nan
0	163412	1466	-nan
0	163412	1467	-nan
0	163412	1468	-nan
0	163412	1469	-nan
0	163412	1470	-nan
0	163412	1471	-nan
0	163412	1472	0
0	163412	1473	-nan
0	163412	1474	-nan
0	163412	1475	0
0	163412	1476	0
0	163412	1477	-nan
0	163412	1478	-nan
0	163412	1479	-nan
0	163412	1480	-nan
0	163412	1481	-nan
0	163412	1482	-nan
0	163412	1483	-nan
0	163412	1484	-nan
0	163412	1485	-nan
0	163412	1486	-nan
0	163412	1487	-nan
0	163412	1488	-nan
0	163412	1489	-nan
0	163412	1490	-nan
0	163412	1491	-nan
0	163412	1492	-nan
0	163412	1493	-nan
0	163412	1494	-nan
0	163412	1495	-nan
0	163412	1496	-nan
0	163412	1497	-nan
0	163412	1498	-nan
0	163412	1499	-nan
0	163412	1500	-nan
0	163412	1501	0
0	163412	1502	0
0	163412	1503	-nan
0	163412	1504	-nan
0	163412	1505	-nan
0	163412	1506	-nan
0	163412	1507	0
0	163412	1508	-nan
0	163412	1509	-nan
0	163412	1510	-nan
0	163412	1511	-nan
0	163412	1512	-nan
0	163412	1513	-nan
0	163412	1514	-nan
0	163412	1515	-nan
0	163412	1516	-nan
0	163412	1517	0
0	163412	1518	-nan
0	163412	1519	-nan
0	163412	1520	-nan
0	163412	1521	-nan
0	163412	1522	0
0	163412	1523	-nan
0	163412	1524	-nan
0	163412	1525	-nan
0	163412	1526	-nan
0	163412	1527	-nan
0	163412	1528	-nan
0	163412	1529	-nan
0	163412	1530	-nan
0	163412	1531	-nan
0	163412	1532	-nan
0	163412	1533	-nan
0	163412	1534	-nan
0	163412	1535	0
0	163412	1536	-nan
0	163412	1537	-nan
0	163412	1538	-nan
0	163412	1539	0
0	163412	1540	-nan
0	163412	1541	-nan
0	163412	1542	-nan
0	163412	1543	-nan
0	163412	1544	-nan
0	163412	1545	-nan
0	163412	1546	-nan
0	163412	1547	-nan
0	163412	1548	-nan
0	163412	1549	-nan
0	163412	1550	-nan
0	163412	1551	-nan
0	163412	1552	-nan
0	163412	1553	-nan
0	163412	1554	-nan
0	163412	1555	-nan
0	163412	1556	-nan
0	163412	1557	-nan
0	163412	1558	-nan
0	163412	1559	-nan
0	163412	1560	-nan
0	163412	1561	-nan
0	163412	1562	-nan
0	163412	1563	-nan
0	163412	1564	-nan
0	163412	1565	-nan
0	163412	1566	-nan
0	163412	1567	-nan
0	163412	1568	-nan
0	163412	1569	0
0	163412	1570	-nan
0	163412	1571	-nan
0	163412	1572	-nan
0	163412	1573	-nan
0	163412	1574	-nan
0	163412	1575	0
0	163412	1576	-nan
0	163412	1577	-nan
0	163412	1578	-nan
0	163412	1579	-nan
0	163412	1580	-nan
0	163412	1581	-nan
0	163412	1582	-nan
0	163412	1583	-nan
0	163412	1584	-nan
0	163412	1585	-nan
0	163412	1586	-nan
0	163412	1587	-nan
0	163412	1588	-nan
0	163412	1589	-nan
0	163412	1590	-nan
0	163412	1591	0
0	163412	1592	-nan
0	163412	1593	-nan
0	163412	1594	-nan
0	163412	1595	-nan
0	163412	1596	-nan
0	163412	1597	-nan
0	163412	1598	-nan
0	163412	1599	-nan
0	163412	1600	0
0	163412	1601	-nan
0	163412	1602	-nan
0	163412	1603	-nan
0	163412	1604	0
0	163412	1605	-nan
0	163412	1606	-nan
0	163412	1607	-nan
0	163412	1608	-nan
0	163412	1609	-nan
0	163412	1610	-nan
0	163412	1611	-nan
0	163412	1612	0
0	163412	1613	-nan
0	163412	1614	0
0	163412	1615	-nan
0	163412	1616	-nan
0	163412	1617	-nan
0	163412	1618	-nan
0	163412	1619	-nan
0	163412	1620	-nan
0	163412	1621	-nan
0	163412	1622	-nan
0	163412	1623	-nan
0	163412	1624	-nan
0	163412	1625	-nan
0	163412	1626	-nan
0	163412	1627	-nan