version 2
run General-7-20150311-18:59:37-28960
attr D fix0.1
attr F spr
attr R lru
attr a 0.6
attr configname General
attr datetime 20150311-18:59:37
attr experiment General
attr inifile omnetpp.ini
attr iterationvars "$net=abilene, $rep=0, $a=0.6, $F=spr, $ttl=1000, $D=fix0.1, $R=lru"
attr iterationvars2 "$net=abilene, $rep=0, $a=0.6, $F=spr, $ttl=1000, $D=fix0.1, $R=lru, $repetition=0"
attr measurement "$net=abilene, $rep=0, $a=0.6, $F=spr, $ttl=1000, $D=fix0.1, $R=lru"
attr net abilene
attr network networks.${net=abilene}_network
attr processid 28960
attr rep 0
attr repetition 0
attr replication #0
attr resultdir results
attr runnumber 7
attr seedset 0
attr ttl 1000

vector 0  abilene_network.node[0].content_store  hit_node[0]  ETV
0	602595	1	0.2
0	602595	2	0.3
0	602595	3	0
0	602595	4	1
0	602595	5	1
0	602595	6	0.5
0	602595	7	0
0	602595	8	0
0	602595	9	1
0	602595	10	0
0	602595	11	0.42857142857143
0	602595	12	0.25
0	602595	13	0.33333333333333
0	602595	14	0.16666666666667
0	602595	15	0
0	602595	16	0
0	602595	17	1
0	602595	18	0
0	602595	19	0
0	602595	20	0
0	602595	21	0
0	602595	22	0.66666666666667
0	602595	23	0
0	602595	24	0.66666666666667
0	602595	25	0
0	602595	26	0.33333333333333
0	602595	27	0
0	602595	28	0
0	602595	29	0
0	602595	30	0
0	602595	31	0
0	602595	32	0
0	602595	33	0
0	602595	34	0
0	602595	35	0
0	602595	36	0
0	602595	37	0
0	602595	38	0
0	602595	39	0
0	602595	40	0
0	602595	41	0.5
0	602595	42	0
0	602595	43	-nan
0	602595	44	-nan
0	602595	45	0
0	602595	46	-nan
0	602595	47	0
0	602595	48	-nan
0	602595	49	0
0	602595	50	0
0	602595	51	0
0	602595	52	0
0	602595	53	0
0	602595	54	0
0	602595	55	0
0	602595	56	0
0	602595	57	0
0	602595	58	0
0	602595	59	0
0	602595	60	0
0	602595	61	0
0	602595	62	0
0	602595	63	0
0	602595	64	-nan
0	602595	65	0
0	602595	66	-nan
0	602595	67	0.6
0	602595	68	0
0	602595	69	1
0	602595	70	-nan
0	602595	71	0
0	602595	72	-nan
0	602595	73	0.5
0	602595	74	0
0	602595	75	0
0	602595	76	0.5
0	602595	77	0
0	602595	78	0
0	602595	79	0.33333333333333
0	602595	80	0
0	602595	81	0
0	602595	82	-nan
0	602595	83	-nan
0	602595	84	0
0	602595	85	-nan
0	602595	86	0
0	602595	87	1
0	602595	88	0
0	602595	89	0
0	602595	90	-nan
0	602595	91	0.5
0	602595	92	0
0	602595	93	0
0	602595	94	0
0	602595	95	-nan
0	602595	96	-nan
0	602595	97	0
0	602595	98	0
0	602595	99	-nan
0	602595	100	0
0	602595	101	-nan
0	602595	102	0.33333333333333
0	602595	103	-nan
0	602595	104	0
0	602595	105	0
0	602595	106	0
0	602595	107	0
0	602595	108	0.5
0	602595	109	0
0	602595	110	-nan
0	602595	111	-nan
0	602595	112	0
0	602595	113	0
0	602595	114	-nan
0	602595	115	0
0	602595	116	-nan
0	602595	117	0
0	602595	118	0
0	602595	119	-nan
0	602595	120	0
0	602595	121	0
0	602595	122	0
0	602595	123	0
0	602595	124	0
0	602595	125	-nan
0	602595	126	-nan
0	602595	127	0
0	602595	128	0
0	602595	129	-nan
0	602595	130	0
0	602595	131	0
0	602595	132	0
0	602595	133	-nan
0	602595	134	-nan
0	602595	135	-nan
0	602595	136	-nan
0	602595	137	0
0	602595	138	-nan
0	602595	139	0
0	602595	140	0
0	602595	141	0
0	602595	142	-nan
0	602595	143	0
0	602595	144	0
0	602595	145	0
0	602595	146	0
0	602595	147	-nan
0	602595	148	0
0	602595	149	0
0	602595	150	0
0	602595	151	0.25
0	602595	152	-nan
0	602595	153	0
0	602595	154	0
0	602595	155	0
0	602595	156	0
0	602595	157	0
0	602595	158	0
0	602595	159	0
0	602595	160	0
0	602595	161	0
0	602595	162	0
0	602595	163	0
0	602595	164	0
0	602595	165	0
0	602595	166	-nan
0	602595	167	0
0	602595	168	-nan
0	602595	169	-nan
0	602595	170	0
0	602595	171	0
0	602595	172	-nan
0	602595	173	-nan
0	602595	174	-nan
0	602595	175	0
0	602595	176	-nan
0	602595	177	0
0	602595	178	0
0	602595	179	0
0	602595	180	-nan
0	602595	181	-nan
0	602595	182	0
0	602595	183	-nan
0	602595	184	-nan
0	602595	185	-nan
0	602595	186	-nan
0	602595	187	-nan
0	602595	188	0
0	602595	189	-nan
0	602595	190	0
0	602595	191	-nan
0	602595	192	0
0	602595	193	-nan
0	602595	194	0
0	602595	195	0
0	602595	196	0
0	602595	197	0
0	602595	198	-nan
0	602595	199	0
0	602595	200	-nan
0	602595	201	0
0	602595	202	0
0	602595	203	-nan
0	602595	204	-nan
0	602595	205	-nan
0	602595	206	-nan
0	602595	207	-nan
0	602595	208	-nan
0	602595	209	0
0	602595	210	0
0	602595	211	-nan
0	602595	212	-nan
0	602595	213	0
0	602595	214	0
0	602595	215	0.5
0	602595	216	-nan
0	602595	217	-nan
0	602595	218	-nan
0	602595	219	-nan
0	602595	220	0
0	602595	221	0
0	602595	222	0
0	602595	223	0
0	602595	224	0
0	602595	225	0
0	602595	226	0
0	602595	227	0
0	602595	228	-nan
0	602595	229	-nan
0	602595	230	0
0	602595	231	0
0	602595	232	0
0	602595	233	-nan
0	602595	234	0
0	602595	235	-nan
0	602595	236	0
0	602595	237	0
0	602595	238	0
0	602595	239	0
0	602595	240	-nan
0	602595	241	-nan
0	602595	242	-nan
0	602595	243	0
0	602595	244	-nan
0	602595	245	-nan
0	602595	246	0
0	602595	247	-nan
0	602595	248	0
0	602595	249	-nan
0	602595	250	0
0	602595	251	0
0	602595	252	-nan
0	602595	253	0
0	602595	254	0
0	602595	255	0
0	602595	256	0
0	602595	257	0
0	602595	258	0
0	602595	259	-nan
0	602595	260	-nan
0	602595	261	-nan
0	602595	262	0
0	602595	263	0
0	602595	264	0
0	602595	265	-nan
0	602595	266	-nan
0	602595	267	0
0	602595	268	-nan
0	602595	269	-nan
0	602595	270	-nan
0	602595	271	0
0	602595	272	-nan
0	602595	273	-nan
0	602595	274	-nan
0	602595	275	0
0	602595	276	-nan
0	602595	277	0
0	602595	278	-nan
0	602595	279	-nan
0	602595	280	-nan
0	602595	281	0
0	602595	282	0
0	602595	283	-nan
0	602595	284	-nan
0	602595	285	-nan
0	602595	286	-nan
0	602595	287	-nan
0	602595	288	0
0	602595	289	-nan
0	602595	290	0
0	602595	291	0
0	602595	292	0
0	602595	293	0
0	602595	294	0
0	602595	295	0
0	602595	296	-nan
0	602595	297	0
0	602595	298	0
0	602595	299	-nan
0	602595	300	0
0	602595	301	0
0	602595	302	-nan
0	602595	303	-nan
0	602595	304	0
0	602595	305	-nan
0	602595	306	0
0	602595	307	0
0	602595	308	-nan
0	602595	309	0
0	602595	310	0
0	602595	311	-nan
0	602595	312	-nan
0	602595	313	-nan
0	602595	314	0
0	602595	315	0
0	602595	316	-nan
0	602595	317	-nan
0	602595	318	-nan
0	602595	319	-nan
0	602595	320	-nan
0	602595	321	0
0	602595	322	-nan
0	602595	323	0
0	602595	324	-nan
0	602595	325	0.5
0	602595	326	-nan
0	602595	327	-nan
0	602595	328	-nan
0	602595	329	-nan
0	602595	330	-nan
0	602595	331	-nan
0	602595	332	-nan
0	602595	333	0
0	602595	334	0
0	602595	335	0
0	602595	336	-nan
0	602595	337	-nan
0	602595	338	-nan
0	602595	339	-nan
0	602595	340	-nan
0	602595	341	-nan
0	602595	342	-nan
0	602595	343	0
0	602595	344	0
0	602595	345	-nan
0	602595	346	0
0	602595	347	-nan
0	602595	348	-nan
0	602595	349	-nan
0	602595	350	-nan
0	602595	351	-nan
0	602595	352	0
0	602595	353	-nan
0	602595	354	-nan
0	602595	355	-nan
0	602595	356	0
0	602595	357	-nan
0	602595	358	-nan
0	602595	359	-nan
0	602595	360	-nan
0	602595	361	0
0	602595	362	-nan
0	602595	363	-nan
0	602595	364	-nan
0	602595	365	-nan
0	602595	366	-nan
0	602595	367	0
0	602595	368	-nan
0	602595	369	-nan
0	602595	370	0
0	602595	371	-nan
0	602595	372	-nan
0	602595	373	0
0	602595	374	0
0	602595	375	-nan
0	602595	376	0
0	602595	377	-nan
0	602595	378	0
0	602595	379	0
0	602595	380	-nan
0	602595	381	0
0	602595	382	0
0	602595	383	0
0	602595	384	0
0	602595	385	-nan
0	602595	386	0.5
0	602595	387	-nan
0	602595	388	-nan
0	602595	389	-nan
0	602595	390	-nan
0	602595	391	-nan
0	602595	392	0
0	602595	393	-nan
0	602595	394	-nan
0	602595	395	-nan
0	602595	396	0
0	602595	397	-nan
0	602595	398	-nan
0	602595	399	-nan
0	602595	400	-nan
0	602595	401	-nan
0	602595	402	-nan
0	602595	403	-nan
0	602595	404	-nan
0	602595	405	0
0	602595	406	0
0	602595	407	0
0	602595	408	-nan
0	602595	409	0
0	602595	410	-nan
0	602595	411	-nan
0	602595	412	-nan
0	602595	413	-nan
0	602595	414	-nan
0	602595	415	0
0	602595	416	0
0	602595	417	0.5
0	602595	418	0
0	602595	419	0
0	602595	420	0
0	602595	421	-nan
0	602595	422	0.5
0	602595	423	0
0	602595	424	-nan
0	602595	425	0.5
0	602595	426	-nan
0	602595	427	-nan
0	602595	428	0
0	602595	429	-nan
0	602595	430	0
0	602595	431	-nan
0	602595	432	-nan
0	602595	433	-nan
0	602595	434	-nan
0	602595	435	-nan
0	602595	436	0
0	602595	437	-nan
0	602595	438	0
0	602595	439	0
0	602595	440	-nan
0	602595	441	-nan
0	602595	442	0
0	602595	443	0
0	602595	444	0
0	602595	445	-nan
0	602595	446	0
0	602595	447	-nan
0	602595	448	0
0	602595	449	-nan
0	602595	450	-nan
0	602595	451	-nan
0	602595	452	-nan
0	602595	453	0
0	602595	454	-nan
0	602595	455	0
0	602595	456	0
0	602595	457	0
0	602595	458	-nan
0	602595	459	-nan
0	602595	460	0
0	602595	461	-nan
0	602595	462	0
0	602595	463	0
0	602595	464	0
0	602595	465	-nan
0	602595	466	0
0	602595	467	-nan
0	602595	468	0
0	602595	469	-nan
0	602595	470	-nan
0	602595	471	0
0	602595	472	0
0	602595	473	-nan
0	602595	474	-nan
0	602595	475	0
0	602595	476	-nan
0	602595	477	-nan
0	602595	478	0
0	602595	479	0
0	602595	480	0
0	602595	481	-nan
0	602595	482	-nan
0	602595	483	-nan
0	602595	484	-nan
0	602595	485	-nan
0	602595	486	-nan
0	602595	487	-nan
0	602595	488	-nan
0	602595	489	0
0	602595	490	0
0	602595	491	-nan
0	602595	492	-nan
0	602595	493	0
0	602595	494	-nan
0	602595	495	-nan
0	602595	496	-nan
0	602595	497	-nan
0	602595	498	-nan
0	602595	499	-nan
0	602595	500	-nan
0	602595	501	0
0	602595	502	-nan
0	602595	503	-nan
0	602595	504	-nan
0	602595	505	0
0	602595	506	-nan
0	602595	507	0
0	602595	508	-nan
0	602595	509	-nan
0	602595	510	0
0	602595	511	-nan
0	602595	512	-nan
0	602595	513	-nan
0	602595	514	0
0	602595	515	0
0	602595	516	-nan
0	602595	517	-nan
0	602595	518	0
0	602595	519	-nan
0	602595	520	-nan
0	602595	521	-nan
0	602595	522	-nan
0	602595	523	-nan
0	602595	524	0
0	602595	525	0
0	602595	526	-nan
0	602595	527	-nan
0	602595	528	-nan
0	602595	529	-nan
0	602595	530	-nan
0	602595	531	-nan
0	602595	532	-nan
0	602595	533	0
0	602595	534	-nan
0	602595	535	0
0	602595	536	0
0	602595	537	-nan
0	602595	538	-nan
0	602595	539	-nan
0	602595	540	0
0	602595	541	-nan
0	602595	542	0
0	602595	543	-nan
0	602595	544	-nan
0	602595	545	-nan
0	602595	546	-nan
0	602595	547	-nan
0	602595	548	-nan
0	602595	549	-nan
0	602595	550	-nan
0	602595	551	-nan
0	602595	552	0
0	602595	553	0
0	602595	554	0
0	602595	555	0
0	602595	556	-nan
0	602595	557	-nan
0	602595	558	-nan
0	602595	559	-nan
0	602595	560	0
0	602595	561	-nan
0	602595	562	0
0	602595	563	-nan
0	602595	564	-nan
0	602595	565	-nan
0	602595	566	-nan
0	602595	567	-nan
0	602595	568	1
0	602595	569	-nan
0	602595	570	-nan
0	602595	571	-nan
0	602595	572	-nan
0	602595	573	0
0	602595	574	0
0	602595	575	-nan
0	602595	576	-nan
0	602595	577	0
0	602595	578	0
0	602595	579	-nan
0	602595	580	0
0	602595	581	-nan
0	602595	582	-nan
0	602595	583	-nan
0	602595	584	-nan
0	602595	585	-nan
0	602595	586	0
0	602595	587	-nan
0	602595	588	-nan
0	602595	589	0
0	602595	590	-nan
0	602595	591	0
0	602595	592	-nan
0	602595	593	0
0	602595	594	0
0	602595	595	0
0	602595	596	-nan
0	602595	597	-nan
0	602595	598	-nan
0	602595	599	-nan
0	602595	600	-nan
0	602595	601	-nan
0	602595	602	-nan
0	602595	603	-nan
0	602595	604	0
0	602595	605	-nan
0	602595	606	-nan
0	602595	607	-nan
0	602595	608	0
0	602595	609	-nan
0	602595	610	0
0	602595	611	-nan
0	602595	612	-nan
0	602595	613	-nan
0	602595	614	0
0	602595	615	0
0	602595	616	0
0	602595	617	-nan
0	602595	618	-nan
0	602595	619	-nan
0	602595	620	0
0	602595	621	0
0	602595	622	-nan
0	602595	623	-nan
0	602595	624	-nan
0	602595	625	0
0	602595	626	-nan
0	602595	627	0
0	602595	628	-nan
0	602595	629	0
0	602595	630	0
0	602595	631	0
0	602595	632	0
0	602595	633	-nan
0	602595	634	-nan
0	602595	635	-nan
0	602595	636	-nan
0	602595	637	0
0	602595	638	0
0	602595	639	-nan
0	602595	640	0
0	602595	641	0
0	602595	642	0
0	602595	643	-nan
0	602595	644	-nan
0	602595	645	-nan
0	602595	646	-nan
0	602595	647	0
0	602595	648	0
0	602595	649	-nan
0	602595	650	-nan
0	602595	651	-nan
0	602595	652	-nan
0	602595	653	-nan
0	602595	654	-nan
0	602595	655	-nan
0	602595	656	-nan
0	602595	657	0
0	602595	658	-nan
0	602595	659	-nan
0	602595	660	-nan
0	602595	661	-nan
0	602595	662	0
0	602595	663	-nan
0	602595	664	0
0	602595	665	-nan
0	602595	666	-nan
0	602595	667	-nan
0	602595	668	-nan
0	602595	669	-nan
0	602595	670	-nan
0	602595	671	-nan
0	602595	672	-nan
0	602595	673	-nan
0	602595	674	-nan
0	602595	675	-nan
0	602595	676	0
0	602595	677	-nan
0	602595	678	-nan
0	602595	679	0
0	602595	680	0
0	602595	681	-nan
0	602595	682	-nan
0	602595	683	-nan
0	602595	684	-nan
0	602595	685	0
0	602595	686	0
0	602595	687	-nan
0	602595	688	-nan
0	602595	689	-nan
0	602595	690	-nan
0	602595	691	-nan
0	602595	692	0
0	602595	693	0
0	602595	694	-nan
0	602595	695	-nan
0	602595	696	-nan
0	602595	697	0
0	602595	698	-nan
0	602595	699	-nan
0	602595	700	-nan
0	602595	701	-nan
0	602595	702	-nan
0	602595	703	-nan
0	602595	704	-nan
0	602595	705	0
0	602595	706	-nan
0	602595	707	-nan
0	602595	708	-nan
0	602595	709	-nan
0	602595	710	-nan
0	602595	711	-nan
0	602595	712	0
0	602595	713	0
0	602595	714	-nan
0	602595	715	0
0	602595	716	-nan
0	602595	717	-nan
0	602595	718	0
0	602595	719	-nan
0	602595	720	-nan
0	602595	721	-nan
0	602595	722	-nan
0	602595	723	-nan
0	602595	724	0
0	602595	725	0
0	602595	726	-nan
0	602595	727	0
0	602595	728	-nan
0	602595	729	-nan
0	602595	730	0
0	602595	731	-nan
0	602595	732	-nan
0	602595	733	-nan
0	602595	734	-nan
0	602595	735	-nan
0	602595	736	-nan
0	602595	737	0
0	602595	738	-nan
0	602595	739	-nan
0	602595	740	0
0	602595	741	-nan
0	602595	742	0
0	602595	743	0
0	602595	744	-nan
0	602595	745	0
0	602595	746	-nan
0	602595	747	-nan
0	602595	748	0
0	602595	749	-nan
0	602595	750	-nan
0	602595	751	-nan
0	602595	752	-nan
0	602595	753	-nan
0	602595	754	0
0	602595	755	-nan
0	602595	756	-nan
0	602595	757	-nan
0	602595	758	-nan
0	602595	759	-nan
0	602595	760	-nan
0	602595	761	-nan
0	602595	762	0
0	602595	763	-nan
0	602595	764	-nan
0	602595	765	-nan
0	602595	766	-nan
0	602595	767	0
0	602595	768	-nan
0	602595	769	-nan
0	602595	770	0
0	602595	771	-nan
0	602595	772	-nan
0	602595	773	-nan
0	602595	774	-nan
0	602595	775	0
0	602595	776	0
0	602595	777	-nan
0	602595	778	-nan
0	602595	779	0
0	602595	780	-nan
0	602595	781	0
0	602595	782	0
0	602595	783	-nan
0	602595	784	-nan
0	602595	785	-nan
0	602595	786	-nan
0	602595	787	-nan
0	602595	788	-nan
0	602595	789	-nan
0	602595	790	-nan
0	602595	791	0
0	602595	792	0
0	602595	793	-nan
0	602595	794	-nan
0	602595	795	-nan
0	602595	796	-nan
0	602595	797	-nan
0	602595	798	-nan
0	602595	799	-nan
0	602595	800	-nan
0	602595	801	0
0	602595	802	0
0	602595	803	-nan
0	602595	804	-nan
0	602595	805	-nan
0	602595	806	0
0	602595	807	-nan
0	602595	808	-nan
0	602595	809	-nan
0	602595	810	0
0	602595	811	-nan
0	602595	812	-nan
0	602595	813	-nan
0	602595	814	-nan
0	602595	815	-nan
0	602595	816	-nan
0	602595	817	0
0	602595	818	0
0	602595	819	0
0	602595	820	0
0	602595	821	-nan
0	602595	822	-nan
0	602595	823	0
0	602595	824	-nan
0	602595	825	0
0	602595	826	0
0	602595	827	-nan
0	602595	828	-nan
0	602595	829	-nan
0	602595	830	-nan
0	602595	831	-nan
0	602595	832	-nan
0	602595	833	0
0	602595	834	-nan
0	602595	835	-nan
0	602595	836	-nan
0	602595	837	-nan
0	602595	838	0
0	602595	839	-nan
0	602595	840	-nan
0	602595	841	-nan
0	602595	842	-nan
0	602595	843	-nan
0	602595	844	-nan
0	602595	845	0
0	602595	846	-nan
0	602595	847	0
0	602595	848	-nan
0	602595	849	-nan
0	602595	850	-nan
0	602595	851	-nan
0	602595	852	-nan
0	602595	853	0
0	602595	854	0
0	602595	855	-nan
0	602595	856	0
0	602595	857	-nan
0	602595	858	-nan
0	602595	859	-nan
0	602595	860	0
0	602595	861	0
0	602595	862	-nan
0	602595	863	0
0	602595	864	0
0	602595	865	0
0	602595	866	0
0	602595	867	0
0	602595	868	0
0	602595	869	-nan
0	602595	870	-nan
0	602595	871	-nan
0	602595	872	-nan
0	602595	873	-nan
0	602595	874	-nan
0	602595	875	-nan
0	602595	876	-nan
0	602595	877	-nan
0	602595	878	0
0	602595	879	-nan
0	602595	880	0
0	602595	881	0
0	602595	882	-nan
0	602595	883	-nan
0	602595	884	-nan
0	602595	885	-nan
0	602595	886	0
0	602595	887	-nan
0	602595	888	-nan
0	602595	889	-nan
0	602595	890	0
0	602595	891	-nan
0	602595	892	-nan
0	602595	893	0
0	602595	894	-nan
0	602595	895	-nan
0	602595	896	-nan
0	602595	897	-nan
0	602595	898	-nan
0	602595	899	0
0	602595	900	-nan
0	602595	901	-nan
0	602595	902	-nan
0	602595	903	0
0	602595	904	-nan
0	602595	905	-nan
0	602595	906	0
0	602595	907	-nan
0	602595	908	-nan
0	602595	909	-nan
0	602595	910	-nan
0	602595	911	0
0	602595	912	-nan
0	602595	913	-nan
0	602595	914	-nan
0	602595	915	0
0	602595	916	-nan
0	602595	917	-nan
0	602595	918	-nan
0	602595	919	-nan
0	602595	920	-nan
0	602595	921	-nan
0	602595	922	-nan
0	602595	923	-nan
0	602595	924	-nan
0	602595	925	0
0	602595	926	-nan
0	602595	927	-nan
0	602595	928	-nan
0	602595	929	-nan
0	602595	930	-nan
0	602595	931	-nan
0	602595	932	-nan
0	602595	933	0
0	602595	934	-nan
0	602595	935	-nan
0	602595	936	-nan
0	602595	937	-nan
0	602595	938	-nan
0	602595	939	-nan
0	602595	940	-nan
0	602595	941	-nan
0	602595	942	0
0	602595	943	-nan
0	602595	944	0
0	602595	945	-nan
0	602595	946	-nan
0	602595	947	0
0	602595	948	0
0	602595	949	-nan
0	602595	950	0
0	602595	951	0
0	602595	952	-nan
0	602595	953	0
0	602595	954	-nan
0	602595	955	-nan
0	602595	956	-nan
0	602595	957	-nan
0	602595	958	0
0	602595	959	0
0	602595	960	-nan
0	602595	961	-nan
0	602595	962	-nan
0	602595	963	-nan
0	602595	964	0.5
0	602595	965	-nan
0	602595	966	0
0	602595	967	0
0	602595	968	-nan
0	602595	969	0
0	602595	970	-nan
0	602595	971	0
0	602595	972	-nan
0	602595	973	-nan
0	602595	974	-nan
0	602595	975	-nan
0	602595	976	-nan
0	602595	977	0
0	602595	978	0
0	602595	979	0
0	602595	980	0
0	602595	981	-nan
0	602595	982	0
0	602595	983	-nan
0	602595	984	-nan
0	602595	985	0
0	602595	986	0
0	602595	987	-nan
0	602595	988	-nan
0	602595	989	-nan
0	602595	990	-nan
0	602595	991	0
0	602595	992	-nan
0	602595	993	-nan
0	602595	994	-nan
0	602595	995	-nan
0	602595	996	-nan
0	602595	997	-nan
0	602595	998	-nan
0	602595	999	-nan
0	602595	1000	-nan
0	602595	1001	-nan
0	602595	1002	0
0	602595	1003	-nan
0	602595	1004	-nan
0	602595	1005	-nan
0	602595	1006	-nan
0	602595	1007	0
0	602595	1008	-nan
0	602595	1009	0
0	602595	1010	-nan
0	602595	1011	0
0	602595	1012	-nan
0	602595	1013	-nan
0	602595	1014	-nan
0	602595	1015	-nan
0	602595	1016	0
0	602595	1017	-nan
0	602595	1018	-nan
0	602595	1019	-nan
0	602595	1020	0
0	602595	1021	-nan
0	602595	1022	-nan
0	602595	1023	-nan
0	602595	1024	-nan
0	602595	1025	-nan
0	602595	1026	-nan
0	602595	1027	-nan
0	602595	1028	-nan
0	602595	1029	-nan
0	602595	1030	-nan
0	602595	1031	-nan
0	602595	1032	-nan
0	602595	1033	-nan
0	602595	1034	-nan
0	602595	1035	-nan
0	602595	1036	-nan
0	602595	1037	0
0	602595	1038	0
0	602595	1039	-nan
0	602595	1040	-nan
0	602595	1041	-nan
0	602595	1042	-nan
0	602595	1043	0
0	602595	1044	-nan
0	602595	1045	-nan
0	602595	1046	0
0	602595	1047	-nan
0	602595	1048	-nan
0	602595	1049	0
0	602595	1050	0
0	602595	1051	-nan
0	602595	1052	-nan
0	602595	1053	-nan
0	602595	1054	-nan
0	602595	1055	-nan
0	602595	1056	-nan
0	602595	1057	0
0	602595	1058	0
0	602595	1059	0
0	602595	1060	-nan
0	602595	1061	-nan
0	602595	1062	0
0	602595	1063	0
0	602595	1064	-nan
0	602595	1065	-nan
0	602595	1066	-nan
0	602595	1067	0
0	602595	1068	-nan
0	602595	1069	-nan
0	602595	1070	0
0	602595	1071	-nan
0	602595	1072	-nan
0	602595	1073	-nan
0	602595	1074	-nan
0	602595	1075	-nan
0	602595	1076	-nan
0	602595	1077	0
0	602595	1078	-nan
0	602595	1079	-nan
0	602595	1080	0
0	602595	1081	-nan
0	602595	1082	-nan
0	602595	1083	-nan
0	602595	1084	-nan
0	602595	1085	-nan
0	602595	1086	-nan
0	602595	1087	-nan
0	602595	1088	0
0	602595	1089	0
0	602595	1090	0
0	602595	1091	-nan
0	602595	1092	-nan
0	602595	1093	-nan
0	602595	1094	-nan
0	602595	1095	-nan
0	602595	1096	-nan
0	602595	1097	-nan
0	602595	1098	-nan
0	602595	1099	-nan
0	602595	1100	-nan
0	602595	1101	-nan
0	602595	1102	0
0	602595	1103	-nan
0	602595	1104	-nan
0	602595	1105	-nan
0	602595	1106	-nan
0	602595	1107	-nan
0	602595	1108	-nan
0	602595	1109	-nan
0	602595	1110	-nan
0	602595	1111	-nan
0	602595	1112	0
0	602595	1113	-nan
0	602595	1114	0
0	602595	1115	-nan
0	602595	1116	0
0	602595	1117	-nan
0	602595	1118	-nan
0	602595	1119	-nan
0	602595	1120	0
0	602595	1121	-nan
0	602595	1122	-nan
0	602595	1123	-nan
0	602595	1124	-nan
0	602595	1125	0
0	602595	1126	-nan
0	602595	1127	0
0	602595	1128	-nan
0	602595	1129	-nan
0	602595	1130	-nan
0	602595	1131	-nan
0	602595	1132	0
0	602595	1133	-nan
0	602595	1134	0
0	602595	1135	-nan
0	602595	1136	0
0	602595	1137	-nan
0	602595	1138	-nan
0	602595	1139	-nan
0	602595	1140	0
0	602595	1141	0
0	602595	1142	-nan
0	602595	1143	0
0	602595	1144	-nan
0	602595	1145	-nan
0	602595	1146	-nan
0	602595	1147	-nan
0	602595	1148	-nan
0	602595	1149	0
0	602595	1150	-nan
0	602595	1151	0
0	602595	1152	-nan
0	602595	1153	-nan
0	602595	1154	0
0	602595	1155	-nan
0	602595	1156	-nan
0	602595	1157	0
0	602595	1158	-nan
0	602595	1159	-nan
0	602595	1160	-nan
0	602595	1161	-nan
0	602595	1162	-nan
0	602595	1163	-nan
0	602595	1164	-nan
0	602595	1165	-nan
0	602595	1166	-nan
0	602595	1167	0
0	602595	1168	-nan
0	602595	1169	-nan
0	602595	1170	-nan
0	602595	1171	0
0	602595	1172	-nan
0	602595	1173	-nan
0	602595	1174	-nan
0	602595	1175	-nan
0	602595	1176	-nan
0	602595	1177	-nan
0	602595	1178	-nan
0	602595	1179	-nan
0	602595	1180	0
0	602595	1181	-nan
0	602595	1182	-nan
0	602595	1183	-nan
0	602595	1184	-nan
0	602595	1185	-nan
0	602595	1186	-nan
0	602595	1187	-nan
0	602595	1188	0
0	602595	1189	-nan
0	602595	1190	-nan
0	602595	1191	0
0	602595	1192	-nan
0	602595	1193	-nan
0	602595	1194	0
0	602595	1195	0.5
0	602595	1196	-nan
0	602595	1197	-nan
0	602595	1198	-nan
0	602595	1199	0
0	602595	1200	-nan
0	602595	1201	-nan
0	602595	1202	0
0	602595	1203	0
0	602595	1204	0
0	602595	1205	0
0	602595	1206	0
0	602595	1207	-nan
0	602595	1208	0
0	602595	1209	0
0	602595	1210	0
0	602595	1211	0
0	602595	1212	-nan
0	602595	1213	-nan
0	602595	1214	-nan
0	602595	1215	0
0	602595	1216	0
0	602595	1217	-nan
0	602595	1218	-nan
0	602595	1219	-nan
0	602595	1220	-nan
0	602595	1221	-nan
0	602595	1222	-nan
0	602595	1223	0
0	602595	1224	-nan
0	602595	1225	0
0	602595	1226	-nan
0	602595	1227	-nan
0	602595	1228	-nan
0	602595	1229	-nan
0	602595	1230	-nan
0	602595	1231	-nan
0	602595	1232	0
0	602595	1233	-nan
0	602595	1234	-nan
0	602595	1235	0
0	602595	1236	-nan
0	602595	1237	-nan
0	602595	1238	-nan
0	602595	1239	-nan
0	602595	1240	-nan
0	602595	1241	-nan
0	602595	1242	-nan
0	602595	1243	-nan
0	602595	1244	0
0	602595	1245	0
0	602595	1246	-nan
0	602595	1247	0
0	602595	1248	0
0	602595	1249	-nan
0	602595	1250	0
0	602595	1251	0
0	602595	1252	-nan
0	602595	1253	-nan
0	602595	1254	-nan
0	602595	1255	-nan
0	602595	1256	-nan
0	602595	1257	-nan
0	602595	1258	0
0	602595	1259	-nan
0	602595	1260	-nan
0	602595	1261	-nan
0	602595	1262	0
0	602595	1263	-nan
0	602595	1264	-nan
0	602595	1265	0
0	602595	1266	-nan
0	602595	1267	-nan
0	602595	1268	0
0	602595	1269	0
0	602595	1270	0
0	602595	1271	-nan
0	602595	1272	-nan
0	602595	1273	-nan
0	602595	1274	-nan
0	602595	1275	-nan
0	602595	1276	0
0	602595	1277	-nan
0	602595	1278	-nan
0	602595	1279	-nan
0	602595	1280	-nan
0	602595	1281	-nan
0	602595	1282	-nan
0	602595	1283	-nan
0	602595	1284	-nan
0	602595	1285	-nan
0	602595	1286	-nan
0	602595	1287	-nan
0	602595	1288	-nan
0	602595	1289	-nan
0	602595	1290	0
0	602595	1291	-nan
0	602595	1292	0
0	602595	1293	-nan
0	602595	1294	0
0	602595	1295	-nan
0	602595	1296	-nan
0	602595	1297	-nan
0	602595	1298	0
0	602595	1299	-nan
0	602595	1300	-nan
0	602595	1301	-nan
0	602595	1302	0
0	602595	1303	-nan
0	602595	1304	0
0	602595	1305	-nan
0	602595	1306	-nan
0	602595	1307	-nan
0	602595	1308	-nan
0	602595	1309	0
0	602595	1310	-nan
0	602595	1311	-nan
0	602595	1312	-nan
0	602595	1313	0
0	602595	1314	-nan
0	602595	1315	-nan
0	602595	1316	-nan
0	602595	1317	-nan
0	602595	1318	0
0	602595	1319	0
0	602595	1320	-nan
0	602595	1321	0
0	602595	1322	-nan
0	602595	1323	0
0	602595	1324	-nan
0	602595	1325	-nan
0	602595	1326	-nan
0	602595	1327	-nan
0	602595	1328	-nan
0	602595	1329	-nan
0	602595	1330	-nan
0	602595	1331	-nan
0	602595	1332	-nan
0	602595	1333	0
0	602595	1334	0
0	602595	1335	-nan
0	602595	1336	-nan
0	602595	1337	-nan
0	602595	1338	-nan
0	602595	1339	-nan
0	602595	1340	-nan
0	602595	1341	-nan
0	602595	1342	0
0	602595	1343	-nan
0	602595	1344	-nan
0	602595	1345	-nan
0	602595	1346	-nan
0	602595	1347	-nan
0	602595	1348	-nan
0	602595	1349	-nan
0	602595	1350	0
0	602595	1351	-nan
0	602595	1352	-nan
0	602595	1353	-nan
0	602595	1354	-nan
0	602595	1355	0
0	602595	1356	0
0	602595	1357	-nan
0	602595	1358	0
0	602595	1359	-nan
0	602595	1360	0
0	602595	1361	-nan
0	602595	1362	-nan
0	602595	1363	0
0	602595	1364	-nan
0	602595	1365	0
0	602595	1366	-nan
0	602595	1367	-nan
0	602595	1368	-nan
0	602595	1369	0
0	602595	1370	-nan
0	602595	1371	-nan
0	602595	1372	-nan
0	602595	1373	-nan
0	602595	1374	-nan
0	602595	1375	-nan
0	602595	1376	-nan
0	602595	1377	-nan
0	602595	1378	-nan
0	602595	1379	-nan
0	602595	1380	-nan
0	602595	1381	-nan
0	602595	1382	-nan
0	602595	1383	0
0	602595	1384	-nan
0	602595	1385	-nan
0	602595	1386	-nan
0	602595	1387	-nan
0	602595	1388	-nan
0	602595	1389	-nan
0	602595	1390	-nan
0	602595	1391	0
0	602595	1392	0
0	602595	1393	-nan
0	602595	1394	-nan
0	602595	1395	-nan
0	602595	1396	-nan
0	602595	1397	-nan
0	602595	1398	0
0	602595	1399	0
0	602595	1400	-nan
0	602595	1401	-nan
0	602595	1402	-nan
0	602595	1403	-nan
0	602595	1404	-nan
0	602595	1405	-nan
0	602595	1406	0
0	602595	1407	-nan
0	602595	1408	-nan
0	602595	1409	-nan
0	602595	1410	0
0	602595	1411	-nan
0	602595	1412	0
0	602595	1413	-nan
0	602595	1414	-nan
0	602595	1415	-nan
0	602595	1416	-nan
0	602595	1417	-nan
0	602595	1418	-nan
0	602595	1419	-nan
0	602595	1420	-nan
0	602595	1421	-nan
0	602595	1422	-nan
0	602595	1423	0
0	602595	1424	-nan
0	602595	1425	-nan
0	602595	1426	-nan
0	602595	1427	-nan
0	602595	1428	-nan
0	602595	1429	-nan
0	602595	1430	-nan
0	602595	1431	-nan
0	602595	1432	-nan
0	602595	1433	-nan
0	602595	1434	-nan
0	602595	1435	-nan
0	602595	1436	0
0	602595	1437	-nan
0	602595	1438	-nan
0	602595	1439	-nan
0	602595	1440	-nan
0	602595	1441	-nan
0	602595	1442	0
0	602595	1443	-nan
0	602595	1444	-nan
0	602595	1445	-nan
0	602595	1446	-nan
0	602595	1447	0
0	602595	1448	-nan
0	602595	1449	-nan
0	602595	1450	-nan
0	602595	1451	-nan
0	602595	1452	-nan
0	602595	1453	-nan
0	602595	1454	-nan
0	602595	1455	0
0	602595	1456	0
0	602595	1457	-nan
0	602595	1458	-nan
0	602595	1459	-nan
0	602595	1460	-nan
0	602595	1461	-nan
0	602595	1462	-nan
0	602595	1463	-nan
0	602595	1464	-nan
0	602595	1465	0
0	602595	1466	-nan
0	602595	1467	-nan
0	602595	1468	-nan
0	602595	1469	-nan
0	602595	1470	-nan
0	602595	1471	0
0	602595	1472	-nan
0	602595	1473	0
0	602595	1474	0
0	602595	1475	-nan
0	602595	1476	-nan
0	602595	1477	-nan
0	602595	1478	0
0	602595	1479	-nan
0	602595	1480	0
0	602595	1481	-nan
0	602595	1482	-nan
0	602595	1483	-nan
0	602595	1484	-nan
0	602595	1485	-nan
0	602595	1486	-nan
0	602595	1487	0
0	602595	1488	-nan
0	602595	1489	0
0	602595	1490	-nan
0	602595	1491	0
0	602595	1492	-nan
0	602595	1493	-nan
0	602595	1494	-nan
0	602595	1495	-nan
0	602595	1496	-nan
0	602595	1497	-nan
0	602595	1498	-nan
0	602595	1499	-nan
0	602595	1500	-nan
0	602595	1501	-nan
0	602595	1502	0
0	602595	1503	-nan
0	602595	1504	0
0	602595	1505	-nan
0	602595	1506	-nan
0	602595	1507	-nan
0	602595	1508	-nan
0	602595	1509	-nan
0	602595	1510	0
0	602595	1511	-nan
0	602595	1512	-nan
0	602595	1513	-nan
0	602595	1514	0
0	602595	1515	-nan
0	602595	1516	0
0	602595	1517	-nan
0	602595	1518	-nan
0	602595	1519	-nan
0	602595	1520	0
0	602595	1521	-nan
0	602595	1522	0
0	602595	1523	-nan
0	602595	1524	-nan
0	602595	1525	-nan
0	602595	1526	-nan
0	602595	1527	-nan
0	602595	1528	-nan
0	602595	1529	0
0	602595	1530	-nan
0	602595	1531	-nan
0	602595	1532	-nan
0	602595	1533	-nan
0	602595	1534	-nan
0	602595	1535	0
0	602595	1536	-nan
0	602595	1537	-nan
0	602595	1538	-nan
0	602595	1539	0
0	602595	1540	0
0	602595	1541	0
0	602595	1542	-nan
0	602595	1543	-nan
0	602595	1544	0
0	602595	1545	-nan
0	602595	1546	-nan
0	602595	1547	0
0	602595	1548	0
0	602595	1549	0
0	602595	1550	0.5
0	602595	1551	0
0	602595	1552	-nan
0	602595	1553	-nan
0	602595	1554	-nan
0	602595	1555	-nan
0	602595	1556	-nan
0	602595	1557	-nan
0	602595	1558	-nan
0	602595	1559	-nan
0	602595	1560	0
0	602595	1561	0
0	602595	1562	-nan
0	602595	1563	-nan
0	602595	1564	-nan
0	602595	1565	-nan
0	602595	1566	-nan
0	602595	1567	-nan
0	602595	1568	-nan
0	602595	1569	-nan
0	602595	1570	0
0	602595	1571	-nan
0	602595	1572	-nan
0	602595	1573	0
0	602595	1574	0
0	602595	1575	-nan
0	602595	1576	-nan
0	602595	1577	0
0	602595	1578	-nan
0	602595	1579	-nan
0	602595	1580	-nan
0	602595	1581	0
0	602595	1582	0
0	602595	1583	-nan
0	602595	1584	-nan
0	602595	1585	-nan
0	602595	1586	-nan
0	602595	1587	-nan
0	602595	1588	0
0	602595	1589	-nan
0	602595	1590	-nan
0	602595	1591	-nan
0	602595	1592	0
0	602595	1593	-nan
0	602595	1594	-nan
0	602595	1595	-nan
0	602595	1596	-nan
0	602595	1597	-nan
0	602595	1598	-nan
0	602595	1599	-nan
0	602595	1600	-nan
0	602595	1601	-nan
0	602595	1602	-nan
0	602595	1603	-nan
0	602595	1604	-nan
0	602595	1605	0
0	602595	1606	0
0	602595	1607	-nan
0	602595	1608	-nan
0	602595	1609	-nan
0	602595	1610	-nan
0	602595	1611	-nan
0	602595	1612	0
0	602595	1613	0
0	602595	1614	-nan
0	602595	1615	0
0	602595	1616	-nan
0	602595	1617	-nan
0	602595	1618	-nan
0	602595	1619	-nan
0	602595	1620	-nan
0	602595	1621	0
0	602595	1622	-nan
0	602595	1623	-nan
0	602595	1624	-nan
0	602595	1625	-nan
0	602595	1626	-nan
0	602595	1627	-nan
0	602595	1628	0
0	602595	1629	-nan
0	602595	1630	-nan
0	602595	1631	-nan
0	602595	1632	-nan
0	602595	1633	-nan
0	602595	1634	0
0	602595	1635	-nan
0	602595	1636	0
0	602595	1637	-nan
0	602595	1638	-nan
0	602595	1639	-nan
0	602595	1640	-nan
0	602595	1641	0
0	602595	1642	-nan
0	602595	1643	-nan
0	602595	1644	-nan
0	602595	1645	-nan
0	602595	1646	-nan
0	602595	1647	-nan
0	602595	1648	-nan
0	602595	1649	-nan
0	602595	1650	-nan
0	602595	1651	0
0	602595	1652	0
0	602595	1653	-nan
0	602595	1654	-nan
0	602595	1655	-nan
0	602595	1656	-nan
0	602595	1657	-nan
0	602595	1658	-nan
0	602595	1659	0
0	602595	1660	-nan
0	602595	1661	-nan
0	602595	1662	-nan
0	602595	1663	-nan
0	602595	1664	-nan
0	602595	1665	-nan
0	602595	1666	-nan
0	602595	1667	-nan
0	602595	1668	-nan
0	602595	1669	0
0	602595	1670	-nan
0	602595	1671	-nan
0	602595	1672	-nan
0	602595	1673	-nan
0	602595	1674	0
0	602595	1675	-nan
0	602595	1676	-nan
0	602595	1677	-nan
0	602595	1678	-nan
0	602595	1679	-nan
0	602595	1680	-nan
0	602595	1681	-nan
0	602595	1682	0
0	602595	1683	-nan