version 2
run General-1-20140917-15:46:06-17196
attr D lcd
attr F spr
attr R lru
attr a 0.5
attr configname General
attr datetime 20140917-15:46:06
attr experiment General
attr inifile omnetpp.ini
attr iterationvars "$net=abilene, $rep=0, $a=0.5, $F=spr, $ttl=1000, $D=lcd, $R=lru"
attr iterationvars2 "$net=abilene, $rep=0, $a=0.5, $F=spr, $ttl=1000, $D=lcd, $R=lru, $repetition=0"
attr measurement "$net=abilene, $rep=0, $a=0.5, $F=spr, $ttl=1000, $D=lcd, $R=lru"
attr net abilene
attr network networks.${net=abilene}_network
attr processid 17196
attr rep 0
attr repetition 0
attr replication #0
attr resultdir results
attr runnumber 1
attr seedset 0
attr ttl 1000

vector 0  abilene_network.node[0].content_store  hit_node[0]  ETV
0	2072476	1	1
0	2072476	2	1
0	2072476	3	1
0	2072476	4	1
0	2072476	5	1
0	2072476	6	1
0	2072476	7	1
0	2072476	8	1
0	2072476	9	1
0	2072476	10	1
0	2072476	11	1
0	2072476	12	1
0	2072476	13	1
0	2072476	14	1
0	2072476	15	1
0	2072476	16	1
0	2072476	17	1
0	2072476	18	1
0	2072476	19	1
0	2072476	20	0
0	2072476	21	1
0	2072476	22	-nan
0	2072476	23	1
0	2072476	24	1
0	2072476	25	1
0	2072476	26	1
0	2072476	27	-nan
0	2072476	28	-nan
0	2072476	29	1
0	2072476	30	1
0	2072476	31	0.5
0	2072476	32	0
0	2072476	33	1
0	2072476	34	1
0	2072476	35	1
0	2072476	36	-nan
0	2072476	37	0.5
0	2072476	38	1
0	2072476	39	1
0	2072476	40	0
0	2072476	41	1
0	2072476	42	-nan
0	2072476	43	1
0	2072476	44	0
0	2072476	45	-nan
0	2072476	46	-nan
0	2072476	47	1
0	2072476	48	1
0	2072476	49	1
0	2072476	50	0
0	2072476	51	1
0	2072476	52	-nan
0	2072476	53	0
0	2072476	54	1
0	2072476	55	0.75
0	2072476	56	1
0	2072476	57	-nan
0	2072476	58	-nan
0	2072476	59	0
0	2072476	60	1
0	2072476	61	1
0	2072476	62	1
0	2072476	63	1
0	2072476	64	0
0	2072476	65	0
0	2072476	66	0
0	2072476	67	-nan
0	2072476	68	1
0	2072476	69	-nan
0	2072476	70	-nan
0	2072476	71	1
0	2072476	72	-nan
0	2072476	73	-nan
0	2072476	74	-nan
0	2072476	75	-nan
0	2072476	76	0
0	2072476	77	0
0	2072476	78	1
0	2072476	79	1
0	2072476	80	0
0	2072476	81	0
0	2072476	82	-nan
0	2072476	83	0
0	2072476	84	0
0	2072476	85	0
0	2072476	86	-nan
0	2072476	87	0.5
0	2072476	88	0
0	2072476	89	1
0	2072476	90	0
0	2072476	91	0
0	2072476	92	1
0	2072476	93	0
0	2072476	94	0
0	2072476	95	1
0	2072476	96	0
0	2072476	97	1
0	2072476	98	1
0	2072476	99	-nan
0	2072476	100	0
0	2072476	101	1
0	2072476	102	0
0	2072476	103	1
0	2072476	104	0
0	2072476	105	-nan
0	2072476	106	1
0	2072476	107	0
0	2072476	108	0
0	2072476	109	-nan
0	2072476	110	-nan
0	2072476	111	0
0	2072476	112	0
0	2072476	113	0
0	2072476	114	0.5
0	2072476	115	0.66666666666667
0	2072476	116	0
0	2072476	117	-nan
0	2072476	118	-nan
0	2072476	119	0
0	2072476	120	0
0	2072476	121	-nan
0	2072476	122	0
0	2072476	123	-nan
0	2072476	124	0
0	2072476	125	0
0	2072476	126	0
0	2072476	127	0
0	2072476	128	0
0	2072476	129	0
0	2072476	130	-nan
0	2072476	131	-nan
0	2072476	132	-nan
0	2072476	133	-nan
0	2072476	134	0
0	2072476	135	-nan
0	2072476	136	0
0	2072476	137	-nan
0	2072476	138	0
0	2072476	139	0
0	2072476	140	-nan
0	2072476	141	0
0	2072476	142	0
0	2072476	143	-nan
0	2072476	144	0
0	2072476	145	0
0	2072476	146	0
0	2072476	147	-nan
0	2072476	148	1
0	2072476	149	-nan
0	2072476	150	-nan
0	2072476	151	-nan
0	2072476	152	-nan
0	2072476	153	-nan
0	2072476	154	0
0	2072476	155	-nan
0	2072476	156	-nan
0	2072476	157	-nan
0	2072476	158	0
0	2072476	159	0
0	2072476	160	-nan
0	2072476	161	1
0	2072476	162	-nan
0	2072476	163	0
0	2072476	164	0
0	2072476	165	-nan
0	2072476	166	0
0	2072476	167	-nan
0	2072476	168	0
0	2072476	169	-nan
0	2072476	170	-nan
0	2072476	171	0
0	2072476	172	-nan
0	2072476	173	-nan
0	2072476	174	-nan
0	2072476	175	-nan
0	2072476	176	0
0	2072476	177	0
0	2072476	178	0
0	2072476	179	-nan
0	2072476	180	0
0	2072476	181	-nan
0	2072476	182	0.66666666666667
0	2072476	183	0
0	2072476	184	-nan
0	2072476	185	0
0	2072476	186	0
0	2072476	187	-nan
0	2072476	188	0
0	2072476	189	-nan
0	2072476	190	0
0	2072476	191	-nan
0	2072476	192	-nan
0	2072476	193	-nan
0	2072476	194	0
0	2072476	195	-nan
0	2072476	196	0
0	2072476	197	0
0	2072476	198	0
0	2072476	199	0
0	2072476	200	0
0	2072476	201	1
0	2072476	202	0
0	2072476	203	0
0	2072476	204	-nan
0	2072476	205	-nan
0	2072476	206	-nan
0	2072476	207	0
0	2072476	208	-nan
0	2072476	209	1
0	2072476	210	-nan
0	2072476	211	0
0	2072476	212	0
0	2072476	213	-nan
0	2072476	214	-nan
0	2072476	215	0
0	2072476	216	-nan
0	2072476	217	-nan
0	2072476	218	-nan
0	2072476	219	-nan
0	2072476	220	-nan
0	2072476	221	0
0	2072476	222	-nan
0	2072476	223	0
0	2072476	224	0
0	2072476	225	-nan
0	2072476	226	-nan
0	2072476	227	-nan
0	2072476	228	1
0	2072476	229	0
0	2072476	230	0
0	2072476	231	-nan
0	2072476	232	-nan
0	2072476	233	-nan
0	2072476	234	0
0	2072476	235	0
0	2072476	236	-nan
0	2072476	237	0
0	2072476	238	-nan
0	2072476	239	-nan
0	2072476	240	-nan
0	2072476	241	-nan
0	2072476	242	0
0	2072476	243	-nan
0	2072476	244	-nan
0	2072476	245	-nan
0	2072476	246	0
0	2072476	247	-nan
0	2072476	248	-nan
0	2072476	249	0
0	2072476	250	0
0	2072476	251	0
0	2072476	252	-nan
0	2072476	253	0
0	2072476	254	-nan
0	2072476	255	0
0	2072476	256	-nan
0	2072476	257	-nan
0	2072476	258	0
0	2072476	259	0
0	2072476	260	-nan
0	2072476	261	0
0	2072476	262	-nan
0	2072476	263	0
0	2072476	264	0
0	2072476	265	0
0	2072476	266	-nan
0	2072476	267	-nan
0	2072476	268	-nan
0	2072476	269	0
0	2072476	270	-nan
0	2072476	271	0
0	2072476	272	0
0	2072476	273	-nan
0	2072476	274	-nan
0	2072476	275	-nan
0	2072476	276	-nan
0	2072476	277	-nan
0	2072476	278	-nan
0	2072476	279	-nan
0	2072476	280	-nan
0	2072476	281	-nan
0	2072476	282	-nan
0	2072476	283	-nan
0	2072476	284	-nan
0	2072476	285	-nan
0	2072476	286	0
0	2072476	287	0
0	2072476	288	-nan
0	2072476	289	0
0	2072476	290	-nan
0	2072476	291	0
0	2072476	292	0
0	2072476	293	0
0	2072476	294	0.66666666666667
0	2072476	295	0
0	2072476	296	0
0	2072476	297	-nan
0	2072476	298	-nan
0	2072476	299	-nan
0	2072476	300	0
0	2072476	301	-nan
0	2072476	302	0
0	2072476	303	-nan
0	2072476	304	0
0	2072476	305	-nan
0	2072476	306	-nan
0	2072476	307	0
0	2072476	308	-nan
0	2072476	309	0
0	2072476	310	-nan
0	2072476	311	-nan
0	2072476	312	0
0	2072476	313	-nan
0	2072476	314	-nan
0	2072476	315	-nan
0	2072476	316	-nan
0	2072476	317	0
0	2072476	318	0
0	2072476	319	0
0	2072476	320	-nan
0	2072476	321	-nan
0	2072476	322	-nan
0	2072476	323	-nan
0	2072476	324	-nan
0	2072476	325	-nan
0	2072476	326	0
0	2072476	327	0
0	2072476	328	-nan
0	2072476	329	0
0	2072476	330	-nan
0	2072476	331	-nan
0	2072476	332	0
0	2072476	333	-nan
0	2072476	334	-nan
0	2072476	335	-nan
0	2072476	336	-nan
0	2072476	337	-nan
0	2072476	338	-nan
0	2072476	339	0
0	2072476	340	0
0	2072476	341	0
0	2072476	342	0
0	2072476	343	-nan
0	2072476	344	-nan
0	2072476	345	-nan
0	2072476	346	-nan
0	2072476	347	-nan
0	2072476	348	-nan
0	2072476	349	-nan
0	2072476	350	0
0	2072476	351	-nan
0	2072476	352	0
0	2072476	353	0
0	2072476	354	-nan
0	2072476	355	-nan
0	2072476	356	-nan
0	2072476	357	-nan
0	2072476	358	-nan
0	2072476	359	-nan
0	2072476	360	-nan
0	2072476	361	-nan
0	2072476	362	-nan
0	2072476	363	-nan
0	2072476	364	-nan
0	2072476	365	-nan
0	2072476	366	-nan
0	2072476	367	-nan
0	2072476	368	-nan
0	2072476	369	-nan
0	2072476	370	-nan
0	2072476	371	0
0	2072476	372	0
0	2072476	373	-nan
0	2072476	374	-nan
0	2072476	375	0
0	2072476	376	0
0	2072476	377	-nan
0	2072476	378	0
0	2072476	379	-nan
0	2072476	380	-nan
0	2072476	381	-nan
0	2072476	382	-nan
0	2072476	383	-nan
0	2072476	384	-nan
0	2072476	385	0
0	2072476	386	0
0	2072476	387	-nan
0	2072476	388	-nan
0	2072476	389	-nan
0	2072476	390	0
0	2072476	391	-nan
0	2072476	392	-nan
0	2072476	393	-nan
0	2072476	394	-nan
0	2072476	395	-nan
0	2072476	396	-nan
0	2072476	397	0
0	2072476	398	0
0	2072476	399	0
0	2072476	400	0
0	2072476	401	0
0	2072476	402	-nan
0	2072476	403	0
0	2072476	404	-nan
0	2072476	405	-nan
0	2072476	406	-nan
0	2072476	407	-nan
0	2072476	408	0
0	2072476	409	-nan
0	2072476	410	-nan
0	2072476	411	0
0	2072476	412	-nan
0	2072476	413	0
0	2072476	414	0
0	2072476	415	-nan
0	2072476	416	0
0	2072476	417	0
0	2072476	418	-nan
0	2072476	419	-nan
0	2072476	420	-nan
0	2072476	421	-nan
0	2072476	422	-nan
0	2072476	423	-nan
0	2072476	424	0
0	2072476	425	-nan
0	2072476	426	-nan
0	2072476	427	-nan
0	2072476	428	0
0	2072476	429	-nan
0	2072476	430	0
0	2072476	431	0
0	2072476	432	0
0	2072476	433	-nan
0	2072476	434	0
0	2072476	435	0
0	2072476	436	0
0	2072476	437	-nan
0	2072476	438	1
0	2072476	439	-nan
0	2072476	440	-nan
0	2072476	441	0
0	2072476	442	0
0	2072476	443	-nan
0	2072476	444	-nan
0	2072476	445	-nan
0	2072476	446	0
0	2072476	447	0
0	2072476	448	-nan
0	2072476	449	0
0	2072476	450	-nan
0	2072476	451	-nan
0	2072476	452	0
0	2072476	453	-nan
0	2072476	454	-nan
0	2072476	455	0
0	2072476	456	-nan
0	2072476	457	0
0	2072476	458	-nan
0	2072476	459	-nan
0	2072476	460	-nan
0	2072476	461	-nan
0	2072476	462	-nan
0	2072476	463	0
0	2072476	464	0
0	2072476	465	0
0	2072476	466	-nan
0	2072476	467	-nan
0	2072476	468	0
0	2072476	469	-nan
0	2072476	470	0
0	2072476	471	-nan
0	2072476	472	0
0	2072476	473	0
0	2072476	474	-nan
0	2072476	475	-nan
0	2072476	476	-nan
0	2072476	477	0
0	2072476	478	-nan
0	2072476	479	-nan
0	2072476	480	-nan
0	2072476	481	0
0	2072476	482	0
0	2072476	483	-nan
0	2072476	484	0
0	2072476	485	-nan
0	2072476	486	0
0	2072476	487	-nan
0	2072476	488	-nan
0	2072476	489	-nan
0	2072476	490	0
0	2072476	491	-nan
0	2072476	492	0
0	2072476	493	0
0	2072476	494	-nan
0	2072476	495	-nan
0	2072476	496	-nan
0	2072476	497	-nan
0	2072476	498	0
0	2072476	499	0
0	2072476	500	-nan
0	2072476	501	-nan
0	2072476	502	0
0	2072476	503	0
0	2072476	504	0
0	2072476	505	0
0	2072476	506	-nan
0	2072476	507	-nan
0	2072476	508	-nan
0	2072476	509	0
0	2072476	510	-nan
0	2072476	511	-nan
0	2072476	512	-nan
0	2072476	513	0
0	2072476	514	-nan
0	2072476	515	0
0	2072476	516	-nan
0	2072476	517	-nan
0	2072476	518	-nan
0	2072476	519	-nan
0	2072476	520	-nan
0	2072476	521	0
0	2072476	522	-nan
0	2072476	523	-nan
0	2072476	524	-nan
0	2072476	525	-nan
0	2072476	526	0
0	2072476	527	-nan
0	2072476	528	-nan
0	2072476	529	0
0	2072476	530	0
0	2072476	531	-nan
0	2072476	532	-nan
0	2072476	533	0
0	2072476	534	-nan
0	2072476	535	-nan
0	2072476	536	-nan
0	2072476	537	-nan
0	2072476	538	0
0	2072476	539	-nan
0	2072476	540	-nan
0	2072476	541	-nan
0	2072476	542	-nan
0	2072476	543	0
0	2072476	544	0
0	2072476	545	0
0	2072476	546	0
0	2072476	547	-nan
0	2072476	548	-nan
0	2072476	549	-nan
0	2072476	550	-nan
0	2072476	551	-nan
0	2072476	552	0
0	2072476	553	-nan
0	2072476	554	-nan
0	2072476	555	-nan
0	2072476	556	-nan
0	2072476	557	0
0	2072476	558	-nan
0	2072476	559	-nan
0	2072476	560	-nan
0	2072476	561	-nan
0	2072476	562	-nan
0	2072476	563	-nan
0	2072476	564	0
0	2072476	565	-nan
0	2072476	566	0
0	2072476	567	-nan
0	2072476	568	-nan
0	2072476	569	-nan
0	2072476	570	-nan
0	2072476	571	-nan
0	2072476	572	-nan
0	2072476	573	-nan
0	2072476	574	-nan
0	2072476	575	-nan
0	2072476	576	0
0	2072476	577	-nan
0	2072476	578	-nan
0	2072476	579	-nan
0	2072476	580	0
0	2072476	581	0
0	2072476	582	-nan
0	2072476	583	-nan
0	2072476	584	-nan
0	2072476	585	-nan
0	2072476	586	-nan
0	2072476	587	-nan
0	2072476	588	-nan
0	2072476	589	-nan
0	2072476	590	-nan
0	2072476	591	-nan
0	2072476	592	0
0	2072476	593	-nan
0	2072476	594	-nan
0	2072476	595	-nan
0	2072476	596	0
0	2072476	597	-nan
0	2072476	598	0
0	2072476	599	-nan
0	2072476	600	0
0	2072476	601	-nan
0	2072476	602	-nan
0	2072476	603	-nan
0	2072476	604	-nan
0	2072476	605	-nan
0	2072476	606	-nan
0	2072476	607	-nan
0	2072476	608	-nan
0	2072476	609	0
0	2072476	610	-nan
0	2072476	611	-nan
0	2072476	612	-nan
0	2072476	613	0
0	2072476	614	-nan
0	2072476	615	-nan
0	2072476	616	0
0	2072476	617	-nan
0	2072476	618	0
0	2072476	619	-nan
0	2072476	620	0
0	2072476	621	-nan
0	2072476	622	0
0	2072476	623	-nan
0	2072476	624	0
0	2072476	625	-nan
0	2072476	626	0
0	2072476	627	-nan
0	2072476	628	0
0	2072476	629	-nan
0	2072476	630	0
0	2072476	631	0
0	2072476	632	-nan
0	2072476	633	-nan
0	2072476	634	-nan
0	2072476	635	0
0	2072476	636	-nan
0	2072476	637	-nan
0	2072476	638	0
0	2072476	639	0
0	2072476	640	0
0	2072476	641	-nan
0	2072476	642	-nan
0	2072476	643	-nan
0	2072476	644	-nan
0	2072476	645	-nan
0	2072476	646	-nan
0	2072476	647	-nan
0	2072476	648	0
0	2072476	649	-nan
0	2072476	650	-nan
0	2072476	651	-nan
0	2072476	652	-nan
0	2072476	653	-nan
0	2072476	654	-nan
0	2072476	655	-nan
0	2072476	656	-nan
0	2072476	657	-nan
0	2072476	658	-nan
0	2072476	659	-nan
0	2072476	660	-nan
0	2072476	661	-nan
0	2072476	662	-nan
0	2072476	663	0
0	2072476	664	-nan
0	2072476	665	-nan
0	2072476	666	-nan
0	2072476	667	-nan
0	2072476	668	0
0	2072476	669	-nan
0	2072476	670	0
0	2072476	671	-nan
0	2072476	672	-nan
0	2072476	673	-nan
0	2072476	674	-nan
0	2072476	675	-nan
0	2072476	676	-nan
0	2072476	677	-nan
0	2072476	678	0
0	2072476	679	-nan
0	2072476	680	0
0	2072476	681	0
0	2072476	682	-nan
0	2072476	683	-nan
0	2072476	684	-nan
0	2072476	685	0
0	2072476	686	0
0	2072476	687	-nan
0	2072476	688	-nan
0	2072476	689	-nan
0	2072476	690	-nan
0	2072476	691	-nan
0	2072476	692	-nan
0	2072476	693	-nan
0	2072476	694	-nan
0	2072476	695	-nan
0	2072476	696	-nan
0	2072476	697	-nan
0	2072476	698	-nan
0	2072476	699	0
0	2072476	700	-nan
0	2072476	701	0
0	2072476	702	-nan
0	2072476	703	-nan
0	2072476	704	-nan
0	2072476	705	-nan
0	2072476	706	-nan
0	2072476	707	-nan
0	2072476	708	0
0	2072476	709	-nan
0	2072476	710	-nan
0	2072476	711	-nan
0	2072476	712	-nan
0	2072476	713	0
0	2072476	714	-nan
0	2072476	715	-nan
0	2072476	716	-nan
0	2072476	717	0
0	2072476	718	-nan
0	2072476	719	-nan
0	2072476	720	-nan
0	2072476	721	-nan
0	2072476	722	-nan
0	2072476	723	0
0	2072476	724	0
0	2072476	725	-nan
0	2072476	726	0
0	2072476	727	0
0	2072476	728	0
0	2072476	729	0
0	2072476	730	-nan
0	2072476	731	0
0	2072476	732	-nan
0	2072476	733	-nan
0	2072476	734	-nan
0	2072476	735	-nan
0	2072476	736	-nan
0	2072476	737	-nan
0	2072476	738	0
0	2072476	739	0
0	2072476	740	-nan
0	2072476	741	0
0	2072476	742	0
0	2072476	743	0
0	2072476	744	0
0	2072476	745	-nan
0	2072476	746	-nan
0	2072476	747	0
0	2072476	748	-nan
0	2072476	749	0
0	2072476	750	0
0	2072476	751	-nan
0	2072476	752	-nan
0	2072476	753	-nan
0	2072476	754	-nan
0	2072476	755	-nan
0	2072476	756	0
0	2072476	757	-nan
0	2072476	758	-nan
0	2072476	759	-nan
0	2072476	760	-nan
0	2072476	761	0
0	2072476	762	-nan
0	2072476	763	-nan
0	2072476	764	-nan
0	2072476	765	-nan
0	2072476	766	0
0	2072476	767	-nan
0	2072476	768	-nan
0	2072476	769	-nan
0	2072476	770	-nan
0	2072476	771	-nan
0	2072476	772	-nan
0	2072476	773	-nan
0	2072476	774	-nan
0	2072476	775	-nan
0	2072476	776	-nan
0	2072476	777	-nan
0	2072476	778	0
0	2072476	779	-nan
0	2072476	780	0
0	2072476	781	-nan
0	2072476	782	0
0	2072476	783	0
0	2072476	784	-nan
0	2072476	785	-nan
0	2072476	786	0
0	2072476	787	-nan
0	2072476	788	-nan
0	2072476	789	-nan
0	2072476	790	0
0	2072476	791	-nan
0	2072476	792	-nan
0	2072476	793	-nan
0	2072476	794	-nan
0	2072476	795	0
0	2072476	796	-nan
0	2072476	797	-nan
0	2072476	798	-nan
0	2072476	799	-nan
0	2072476	800	-nan
0	2072476	801	0
0	2072476	802	-nan
0	2072476	803	-nan
0	2072476	804	-nan
0	2072476	805	-nan
0	2072476	806	-nan
0	2072476	807	0
0	2072476	808	-nan
0	2072476	809	-nan
0	2072476	810	-nan
0	2072476	811	-nan
0	2072476	812	-nan
0	2072476	813	0
0	2072476	814	-nan
0	2072476	815	-nan
0	2072476	816	0
0	2072476	817	-nan
0	2072476	818	-nan
0	2072476	819	0
0	2072476	820	-nan
0	2072476	821	-nan
0	2072476	822	-nan
0	2072476	823	0
0	2072476	824	0
0	2072476	825	-nan
0	2072476	826	-nan
0	2072476	827	-nan
0	2072476	828	-nan
0	2072476	829	-nan
0	2072476	830	-nan
0	2072476	831	0
0	2072476	832	-nan
0	2072476	833	0
0	2072476	834	0
0	2072476	835	-nan
0	2072476	836	-nan
0	2072476	837	-nan
0	2072476	838	-nan
0	2072476	839	-nan
0	2072476	840	-nan
0	2072476	841	-nan
0	2072476	842	-nan
0	2072476	843	-nan
0	2072476	844	0
0	2072476	845	-nan
0	2072476	846	0
0	2072476	847	-nan
0	2072476	848	-nan
0	2072476	849	-nan
0	2072476	850	-nan
0	2072476	851	-nan
0	2072476	852	-nan
0	2072476	853	-nan
0	2072476	854	-nan
0	2072476	855	-nan
0	2072476	856	-nan
0	2072476	857	0
0	2072476	858	0
0	2072476	859	0
0	2072476	860	-nan
0	2072476	861	0
0	2072476	862	0
0	2072476	863	0
0	2072476	864	-nan
0	2072476	865	0
0	2072476	866	-nan
0	2072476	867	-nan
0	2072476	868	-nan
0	2072476	869	-nan
0	2072476	870	-nan
0	2072476	871	-nan
0	2072476	872	-nan
0	2072476	873	-nan
0	2072476	874	-nan
0	2072476	875	-nan
0	2072476	876	-nan
0	2072476	877	-nan
0	2072476	878	-nan
0	2072476	879	-nan
0	2072476	880	0
0	2072476	881	0
0	2072476	882	0
0	2072476	883	-nan
0	2072476	884	0
0	2072476	885	0
0	2072476	886	-nan
0	2072476	887	-nan
0	2072476	888	0
0	2072476	889	-nan
0	2072476	890	-nan
0	2072476	891	-nan
0	2072476	892	-nan
0	2072476	893	0
0	2072476	894	-nan
0	2072476	895	-nan
0	2072476	896	-nan
0	2072476	897	-nan
0	2072476	898	-nan
0	2072476	899	-nan
0	2072476	900	-nan
0	2072476	901	0
0	2072476	902	-nan
0	2072476	903	0
0	2072476	904	0
0	2072476	905	-nan
0	2072476	906	-nan
0	2072476	907	-nan
0	2072476	908	-nan
0	2072476	909	0
0	2072476	910	-nan
0	2072476	911	-nan
0	2072476	912	0
0	2072476	913	-nan
0	2072476	914	-nan
0	2072476	915	0
0	2072476	916	-nan
0	2072476	917	-nan
0	2072476	918	-nan
0	2072476	919	-nan
0	2072476	920	-nan
0	2072476	921	-nan
0	2072476	922	-nan
0	2072476	923	-nan
0	2072476	924	-nan
0	2072476	925	-nan
0	2072476	926	0
0	2072476	927	-nan
0	2072476	928	-nan
0	2072476	929	0
0	2072476	930	-nan
0	2072476	931	-nan
0	2072476	932	-nan
0	2072476	933	0
0	2072476	934	-nan
0	2072476	935	0
0	2072476	936	0
0	2072476	937	-nan
0	2072476	938	-nan
0	2072476	939	-nan
0	2072476	940	-nan
0	2072476	941	-nan
0	2072476	942	-nan
0	2072476	943	-nan
0	2072476	944	-nan
0	2072476	945	0
0	2072476	946	-nan
0	2072476	947	-nan
0	2072476	948	-nan
0	2072476	949	0
0	2072476	950	-nan
0	2072476	951	-nan
0	2072476	952	-nan
0	2072476	953	0
0	2072476	954	-nan
0	2072476	955	-nan
0	2072476	956	-nan
0	2072476	957	-nan
0	2072476	958	-nan
0	2072476	959	0
0	2072476	960	-nan
0	2072476	961	-nan
0	2072476	962	0
0	2072476	963	-nan
0	2072476	964	-nan
0	2072476	965	-nan
0	2072476	966	-nan
0	2072476	967	-nan
0	2072476	968	-nan
0	2072476	969	-nan
0	2072476	970	0
0	2072476	971	-nan
0	2072476	972	-nan
0	2072476	973	-nan
0	2072476	974	-nan
0	2072476	975	-nan
0	2072476	976	-nan
0	2072476	977	0
0	2072476	978	-nan
0	2072476	979	0
0	2072476	980	-nan
0	2072476	981	0
0	2072476	982	-nan
0	2072476	983	0
0	2072476	984	-nan
0	2072476	985	-nan
0	2072476	986	-nan
0	2072476	987	-nan
0	2072476	988	-nan
0	2072476	989	-nan
0	2072476	990	-nan
0	2072476	991	-nan
0	2072476	992	-nan
0	2072476	993	-nan
0	2072476	994	-nan
0	2072476	995	0
0	2072476	996	-nan
0	2072476	997	-nan
0	2072476	998	-nan
0	2072476	999	-nan
0	2072476	1000	-nan
0	2072476	1001	0
0	2072476	1002	-nan
0	2072476	1003	-nan
0	2072476	1004	0
0	2072476	1005	0
0	2072476	1006	0
0	2072476	1007	0
0	2072476	1008	0
0	2072476	1009	-nan
0	2072476	1010	-nan
0	2072476	1011	0
0	2072476	1012	0
0	2072476	1013	-nan
0	2072476	1014	-nan
0	2072476	1015	-nan
0	2072476	1016	0
0	2072476	1017	-nan
0	2072476	1018	0
0	2072476	1019	0
0	2072476	1020	-nan
0	2072476	1021	-nan
0	2072476	1022	-nan
0	2072476	1023	0
0	2072476	1024	-nan
0	2072476	1025	-nan
0	2072476	1026	-nan
0	2072476	1027	-nan
0	2072476	1028	0
0	2072476	1029	0
0	2072476	1030	-nan
0	2072476	1031	-nan
0	2072476	1032	-nan
0	2072476	1033	-nan
0	2072476	1034	-nan
0	2072476	1035	-nan
0	2072476	1036	0
0	2072476	1037	-nan
0	2072476	1038	-nan
0	2072476	1039	-nan
0	2072476	1040	-nan
0	2072476	1041	-nan
0	2072476	1042	-nan
0	2072476	1043	-nan
0	2072476	1044	0
0	2072476	1045	-nan
0	2072476	1046	-nan
0	2072476	1047	-nan
0	2072476	1048	0
0	2072476	1049	-nan
0	2072476	1050	-nan
0	2072476	1051	-nan
0	2072476	1052	-nan
0	2072476	1053	-nan
0	2072476	1054	0
0	2072476	1055	-nan
0	2072476	1056	-nan
0	2072476	1057	0
0	2072476	1058	0
0	2072476	1059	-nan
0	2072476	1060	-nan
0	2072476	1061	-nan
0	2072476	1062	-nan
0	2072476	1063	0
0	2072476	1064	-nan
0	2072476	1065	-nan
0	2072476	1066	-nan
0	2072476	1067	0
0	2072476	1068	-nan
0	2072476	1069	0
0	2072476	1070	0
0	2072476	1071	0
0	2072476	1072	0
0	2072476	1073	-nan
0	2072476	1074	-nan
0	2072476	1075	0
0	2072476	1076	-nan
0	2072476	1077	-nan
0	2072476	1078	-nan
0	2072476	1079	-nan
0	2072476	1080	-nan
0	2072476	1081	0
0	2072476	1082	0
0	2072476	1083	-nan
0	2072476	1084	-nan
0	2072476	1085	0
0	2072476	1086	-nan
0	2072476	1087	-nan
0	2072476	1088	-nan
0	2072476	1089	-nan
0	2072476	1090	-nan
0	2072476	1091	-nan
0	2072476	1092	0
0	2072476	1093	-nan
0	2072476	1094	-nan
0	2072476	1095	-nan
0	2072476	1096	-nan
0	2072476	1097	0
0	2072476	1098	-nan
0	2072476	1099	-nan
0	2072476	1100	-nan
0	2072476	1101	-nan
0	2072476	1102	-nan
0	2072476	1103	-nan
0	2072476	1104	-nan
0	2072476	1105	-nan
0	2072476	1106	-nan
0	2072476	1107	-nan
0	2072476	1108	-nan
0	2072476	1109	-nan
0	2072476	1110	0
0	2072476	1111	-nan
0	2072476	1112	-nan
0	2072476	1113	0
0	2072476	1114	-nan
0	2072476	1115	0
0	2072476	1116	-nan
0	2072476	1117	0
0	2072476	1118	0
0	2072476	1119	-nan
0	2072476	1120	-nan
0	2072476	1121	-nan
0	2072476	1122	0
0	2072476	1123	-nan
0	2072476	1124	-nan
0	2072476	1125	-nan
0	2072476	1126	-nan
0	2072476	1127	-nan
0	2072476	1128	-nan
0	2072476	1129	0
0	2072476	1130	-nan
0	2072476	1131	-nan
0	2072476	1132	0
0	2072476	1133	-nan
0	2072476	1134	-nan
0	2072476	1135	-nan
0	2072476	1136	-nan
0	2072476	1137	-nan
0	2072476	1138	-nan
0	2072476	1139	-nan
0	2072476	1140	-nan
0	2072476	1141	-nan
0	2072476	1142	0
0	2072476	1143	-nan
0	2072476	1144	-nan
0	2072476	1145	-nan
0	2072476	1146	-nan
0	2072476	1147	-nan
0	2072476	1148	-nan
0	2072476	1149	-nan
0	2072476	1150	0
0	2072476	1151	-nan
0	2072476	1152	-nan
0	2072476	1153	-nan
0	2072476	1154	-nan
0	2072476	1155	-nan
0	2072476	1156	-nan
0	2072476	1157	0
0	2072476	1158	0
0	2072476	1159	-nan
0	2072476	1160	0
0	2072476	1161	0
0	2072476	1162	-nan
0	2072476	1163	-nan
0	2072476	1164	-nan
0	2072476	1165	-nan
0	2072476	1166	-nan
0	2072476	1167	-nan
0	2072476	1168	0
0	2072476	1169	-nan
0	2072476	1170	-nan
0	2072476	1171	-nan
0	2072476	1172	-nan
0	2072476	1173	-nan
0	2072476	1174	-nan
0	2072476	1175	-nan
0	2072476	1176	-nan
0	2072476	1177	0
0	2072476	1178	-nan
0	2072476	1179	-nan
0	2072476	1180	-nan
0	2072476	1181	-nan
0	2072476	1182	-nan
0	2072476	1183	-nan
0	2072476	1184	-nan
0	2072476	1185	-nan
0	2072476	1186	-nan
0	2072476	1187	-nan
0	2072476	1188	-nan
0	2072476	1189	-nan
0	2072476	1190	0
0	2072476	1191	0
0	2072476	1192	-nan
0	2072476	1193	0
0	2072476	1194	-nan
0	2072476	1195	-nan
0	2072476	1196	0
0	2072476	1197	-nan
0	2072476	1198	-nan
0	2072476	1199	-nan
0	2072476	1200	-nan
0	2072476	1201	-nan
0	2072476	1202	-nan
0	2072476	1203	-nan
0	2072476	1204	-nan
0	2072476	1205	-nan
0	2072476	1206	-nan
0	2072476	1207	-nan
0	2072476	1208	0
0	2072476	1209	-nan
0	2072476	1210	-nan
0	2072476	1211	-nan
0	2072476	1212	0
0	2072476	1213	-nan
0	2072476	1214	-nan
0	2072476	1215	0
0	2072476	1216	-nan
0	2072476	1217	-nan
0	2072476	1218	-nan
0	2072476	1219	-nan
0	2072476	1220	-nan
0	2072476	1221	-nan
0	2072476	1222	-nan
0	2072476	1223	-nan
0	2072476	1224	-nan
0	2072476	1225	-nan
0	2072476	1226	-nan
0	2072476	1227	-nan
0	2072476	1228	-nan
0	2072476	1229	-nan
0	2072476	1230	-nan
0	2072476	1231	-nan
0	2072476	1232	-nan
0	2072476	1233	-nan
0	2072476	1234	0
0	2072476	1235	-nan
0	2072476	1236	-nan
0	2072476	1237	-nan
0	2072476	1238	-nan
0	2072476	1239	0
0	2072476	1240	-nan
0	2072476	1241	0
0	2072476	1242	-nan
0	2072476	1243	-nan
0	2072476	1244	-nan
0	2072476	1245	-nan
0	2072476	1246	0
0	2072476	1247	0
0	2072476	1248	-nan
0	2072476	1249	-nan
0	2072476	1250	-nan
0	2072476	1251	-nan
0	2072476	1252	-nan
0	2072476	1253	-nan
0	2072476	1254	0
0	2072476	1255	-nan
0	2072476	1256	-nan
0	2072476	1257	-nan
0	2072476	1258	-nan
0	2072476	1259	-nan
0	2072476	1260	-nan
0	2072476	1261	-nan
0	2072476	1262	0
0	2072476	1263	0
0	2072476	1264	-nan
0	2072476	1265	0
0	2072476	1266	0
0	2072476	1267	0
0	2072476	1268	-nan
0	2072476	1269	0
0	2072476	1270	-nan
0	2072476	1271	-nan
0	2072476	1272	-nan
0	2072476	1273	-nan
0	2072476	1274	-nan
0	2072476	1275	-nan
0	2072476	1276	-nan
0	2072476	1277	-nan
0	2072476	1278	-nan
0	2072476	1279	0
0	2072476	1280	-nan
0	2072476	1281	0
0	2072476	1282	0
0	2072476	1283	-nan
0	2072476	1284	-nan
0	2072476	1285	-nan
0	2072476	1286	-nan
0	2072476	1287	0
0	2072476	1288	-nan
0	2072476	1289	-nan
0	2072476	1290	-nan
0	2072476	1291	-nan
0	2072476	1292	-nan
0	2072476	1293	-nan
0	2072476	1294	0
0	2072476	1295	0
0	2072476	1296	-nan
0	2072476	1297	0
0	2072476	1298	-nan
0	2072476	1299	-nan
0	2072476	1300	-nan
0	2072476	1301	-nan
0	2072476	1302	-nan
0	2072476	1303	0
0	2072476	1304	0
0	2072476	1305	-nan
0	2072476	1306	-nan
0	2072476	1307	-nan
0	2072476	1308	-nan
0	2072476	1309	-nan
0	2072476	1310	-nan
0	2072476	1311	-nan
0	2072476	1312	0
0	2072476	1313	-nan
0	2072476	1314	0
0	2072476	1315	0
0	2072476	1316	-nan
0	2072476	1317	-nan
0	2072476	1318	-nan
0	2072476	1319	-nan
0	2072476	1320	0
0	2072476	1321	-nan
0	2072476	1322	-nan
0	2072476	1323	-nan
0	2072476	1324	-nan
0	2072476	1325	0
0	2072476	1326	-nan
0	2072476	1327	-nan
0	2072476	1328	-nan
0	2072476	1329	-nan
0	2072476	1330	-nan
0	2072476	1331	-nan
0	2072476	1332	0
0	2072476	1333	-nan
0	2072476	1334	0
0	2072476	1335	0
0	2072476	1336	-nan
0	2072476	1337	0
0	2072476	1338	-nan
0	2072476	1339	0
0	2072476	1340	0
0	2072476	1341	-nan
0	2072476	1342	-nan
0	2072476	1343	0
0	2072476	1344	-nan
0	2072476	1345	-nan
0	2072476	1346	-nan
0	2072476	1347	-nan
0	2072476	1348	-nan
0	2072476	1349	-nan
0	2072476	1350	-nan
0	2072476	1351	-nan
0	2072476	1352	-nan
0	2072476	1353	-nan
0	2072476	1354	-nan
0	2072476	1355	-nan
0	2072476	1356	-nan
0	2072476	1357	-nan
0	2072476	1358	-nan
0	2072476	1359	0
0	2072476	1360	-nan
0	2072476	1361	-nan
0	2072476	1362	-nan
0	2072476	1363	0
0	2072476	1364	-nan
0	2072476	1365	0
0	2072476	1366	0
0	2072476	1367	-nan
0	2072476	1368	-nan
0	2072476	1369	-nan
0	2072476	1370	-nan
0	2072476	1371	-nan
0	2072476	1372	-nan
0	2072476	1373	-nan
0	2072476	1374	0
0	2072476	1375	-nan
0	2072476	1376	-nan
0	2072476	1377	0
0	2072476	1378	0
0	2072476	1379	-nan
0	2072476	1380	-nan
0	2072476	1381	0
0	2072476	1382	-nan
0	2072476	1383	-nan
0	2072476	1384	0
0	2072476	1385	-nan
0	2072476	1386	0
0	2072476	1387	-nan
0	2072476	1388	-nan
0	2072476	1389	-nan
0	2072476	1390	-nan
0	2072476	1391	-nan
0	2072476	1392	-nan
0	2072476	1393	-nan
0	2072476	1394	0
0	2072476	1395	-nan
0	2072476	1396	-nan
0	2072476	1397	-nan
0	2072476	1398	-nan
0	2072476	1399	-nan
0	2072476	1400	-nan
0	2072476	1401	0
0	2072476	1402	-nan
0	2072476	1403	-nan
0	2072476	1404	-nan
0	2072476	1405	-nan
0	2072476	1406	0
0	2072476	1407	0
0	2072476	1408	-nan
0	2072476	1409	-nan
0	2072476	1410	0
0	2072476	1411	-nan
0	2072476	1412	-nan
0	2072476	1413	-nan
0	2072476	1414	-nan
0	2072476	1415	-nan
0	2072476	1416	-nan
0	2072476	1417	-nan
0	2072476	1418	-nan
0	2072476	1419	-nan
0	2072476	1420	0
0	2072476	1421	0
0	2072476	1422	-nan
0	2072476	1423	-nan
0	2072476	1424	-nan
0	2072476	1425	-nan
0	2072476	1426	-nan
0	2072476	1427	0
0	2072476	1428	-nan
0	2072476	1429	0
0	2072476	1430	-nan
0	2072476	1431	-nan
0	2072476	1432	-nan
0	2072476	1433	-nan
0	2072476	1434	-nan
0	2072476	1435	-nan
0	2072476	1436	-nan
0	2072476	1437	-nan
0	2072476	1438	-nan
0	2072476	1439	-nan
0	2072476	1440	0
0	2072476	1441	-nan
0	2072476	1442	-nan
0	2072476	1443	0
0	2072476	1444	-nan
0	2072476	1445	-nan
0	2072476	1446	-nan
0	2072476	1447	0
0	2072476	1448	-nan
0	2072476	1449	-nan
0	2072476	1450	-nan
0	2072476	1451	-nan
0	2072476	1452	0
0	2072476	1453	0
0	2072476	1454	-nan
0	2072476	1455	-nan
0	2072476	1456	0
0	2072476	1457	0
0	2072476	1458	-nan
0	2072476	1459	-nan
0	2072476	1460	-nan
0	2072476	1461	-nan
0	2072476	1462	-nan
0	2072476	1463	-nan
0	2072476	1464	0
0	2072476	1465	-nan
0	2072476	1466	0
0	2072476	1467	-nan
0	2072476	1468	0
0	2072476	1469	-nan
0	2072476	1470	-nan
0	2072476	1471	0
0	2072476	1472	-nan
0	2072476	1473	0
0	2072476	1474	-nan
0	2072476	1475	-nan
0	2072476	1476	0
0	2072476	1477	-nan
0	2072476	1478	-nan
0	2072476	1479	-nan
0	2072476	1480	-nan
0	2072476	1481	-nan
0	2072476	1482	0
0	2072476	1483	-nan
0	2072476	1484	-nan
0	2072476	1485	0
0	2072476	1486	-nan
0	2072476	1487	-nan
0	2072476	1488	-nan
0	2072476	1489	-nan
0	2072476	1490	0
0	2072476	1491	-nan
0	2072476	1492	-nan
0	2072476	1493	-nan
0	2072476	1494	-nan
0	2072476	1495	0
0	2072476	1496	-nan
0	2072476	1497	-nan
0	2072476	1498	-nan
0	2072476	1499	-nan
0	2072476	1500	-nan
0	2072476	1501	0
0	2072476	1502	0
0	2072476	1503	-nan
0	2072476	1504	-nan
0	2072476	1505	-nan
0	2072476	1506	-nan
0	2072476	1507	-nan
0	2072476	1508	0
0	2072476	1509	0
0	2072476	1510	-nan
0	2072476	1511	-nan
0	2072476	1512	-nan
0	2072476	1513	-nan
0	2072476	1514	-nan
0	2072476	1515	0
0	2072476	1516	-nan
0	2072476	1517	0
0	2072476	1518	-nan
0	2072476	1519	-nan
0	2072476	1520	-nan
0	2072476	1521	-nan
0	2072476	1522	0
0	2072476	1523	-nan
0	2072476	1524	-nan
0	2072476	1525	-nan
0	2072476	1526	-nan
0	2072476	1527	-nan
0	2072476	1528	0
0	2072476	1529	0
0	2072476	1530	-nan
0	2072476	1531	-nan
0	2072476	1532	0
0	2072476	1533	0
0	2072476	1534	-nan
0	2072476	1535	-nan
0	2072476	1536	-nan
0	2072476	1537	-nan
0	2072476	1538	-nan
0	2072476	1539	-nan
0	2072476	1540	0
0	2072476	1541	0
0	2072476	1542	-nan
0	2072476	1543	-nan
0	2072476	1544	0
0	2072476	1545	0
0	2072476	1546	-nan
0	2072476	1547	-nan
0	2072476	1548	-nan
0	2072476	1549	-nan
0	2072476	1550	-nan
0	2072476	1551	-nan
0	2072476	1552	-nan
0	2072476	1553	0
0	2072476	1554	-nan
0	2072476	1555	-nan
0	2072476	1556	0
0	2072476	1557	-nan
0	2072476	1558	-nan
0	2072476	1559	0
0	2072476	1560	-nan
0	2072476	1561	-nan
0	2072476	1562	0
0	2072476	1563	-nan
0	2072476	1564	-nan
0	2072476	1565	-nan
0	2072476	1566	-nan
0	2072476	1567	0
0	2072476	1568	-nan
0	2072476	1569	0
0	2072476	1570	0
0	2072476	1571	-nan
0	2072476	1572	-nan
0	2072476	1573	0
0	2072476	1574	-nan
0	2072476	1575	0
0	2072476	1576	-nan
0	2072476	1577	-nan
0	2072476	1578	-nan
0	2072476	1579	-nan
0	2072476	1580	0
0	2072476	1581	-nan
0	2072476	1582	-nan
0	2072476	1583	-nan
0	2072476	1584	-nan
0	2072476	1585	-nan
0	2072476	1586	-nan
0	2072476	1587	-nan
0	2072476	1588	-nan
0	2072476	1589	-nan
0	2072476	1590	-nan
0	2072476	1591	0
0	2072476	1592	-nan
0	2072476	1593	-nan
0	2072476	1594	-nan
0	2072476	1595	-nan
0	2072476	1596	0