version 2
run General-1-20150311-18:59:35-28954
attr D lcd
attr F spr
attr R lru
attr a 0.5
attr configname General
attr datetime 20150311-18:59:35
attr experiment General
attr inifile omnetpp.ini
attr iterationvars "$net=abilene, $rep=0, $a=0.5, $F=spr, $ttl=1000, $D=lcd, $R=lru"
attr iterationvars2 "$net=abilene, $rep=0, $a=0.5, $F=spr, $ttl=1000, $D=lcd, $R=lru, $repetition=0"
attr measurement "$net=abilene, $rep=0, $a=0.5, $F=spr, $ttl=1000, $D=lcd, $R=lru"
attr net abilene
attr network networks.${net=abilene}_network
attr processid 28954
attr rep 0
attr repetition 0
attr replication #0
attr resultdir results
attr runnumber 1
attr seedset 0
attr ttl 1000

vector 0  abilene_network.node[0].content_store  hit_node[0]  ETV
0	1967630	1	1
0	1967630	2	1
0	1967630	3	1
0	1967630	4	1
0	1967630	5	1
0	1967630	6	1
0	1967630	7	1
0	1967630	8	0.71428571428571
0	1967630	9	1
0	1967630	10	1
0	1967630	11	1
0	1967630	12	1
0	1967630	13	1
0	1967630	14	1
0	1967630	15	-nan
0	1967630	16	1
0	1967630	17	-nan
0	1967630	18	1
0	1967630	19	1
0	1967630	20	1
0	1967630	21	-nan
0	1967630	22	1
0	1967630	23	0.5
0	1967630	24	-nan
0	1967630	25	1
0	1967630	26	1
0	1967630	27	1
0	1967630	28	1
0	1967630	29	1
0	1967630	30	1
0	1967630	31	1
0	1967630	32	1
0	1967630	33	-nan
0	1967630	34	1
0	1967630	35	1
0	1967630	36	1
0	1967630	37	-nan
0	1967630	38	0
0	1967630	39	-nan
0	1967630	40	1
0	1967630	41	1
0	1967630	42	0
0	1967630	43	0
0	1967630	44	-nan
0	1967630	45	0
0	1967630	46	-nan
0	1967630	47	-nan
0	1967630	48	-nan
0	1967630	49	-nan
0	1967630	50	1
0	1967630	51	1
0	1967630	52	0
0	1967630	53	0
0	1967630	54	0.5
0	1967630	55	0.5
0	1967630	56	1
0	1967630	57	-nan
0	1967630	58	0
0	1967630	59	1
0	1967630	60	0
0	1967630	61	1
0	1967630	62	1
0	1967630	63	-nan
0	1967630	64	0
0	1967630	65	0
0	1967630	66	1
0	1967630	67	0
0	1967630	68	-nan
0	1967630	69	0
0	1967630	70	-nan
0	1967630	71	-nan
0	1967630	72	-nan
0	1967630	73	0
0	1967630	74	-nan
0	1967630	75	1
0	1967630	76	1
0	1967630	77	-nan
0	1967630	78	1
0	1967630	79	1
0	1967630	80	1
0	1967630	81	0
0	1967630	82	-nan
0	1967630	83	-nan
0	1967630	84	0
0	1967630	85	-nan
0	1967630	86	-nan
0	1967630	87	-nan
0	1967630	88	-nan
0	1967630	89	0
0	1967630	90	-nan
0	1967630	91	0.5
0	1967630	92	-nan
0	1967630	93	-nan
0	1967630	94	-nan
0	1967630	95	0
0	1967630	96	1
0	1967630	97	-nan
0	1967630	98	1
0	1967630	99	0
0	1967630	100	-nan
0	1967630	101	0
0	1967630	102	0
0	1967630	103	0
0	1967630	104	1
0	1967630	105	0.5
0	1967630	106	0
0	1967630	107	-nan
0	1967630	108	0
0	1967630	109	0
0	1967630	110	0
0	1967630	111	-nan
0	1967630	112	-nan
0	1967630	113	-nan
0	1967630	114	0
0	1967630	115	-nan
0	1967630	116	-nan
0	1967630	117	0
0	1967630	118	-nan
0	1967630	119	1
0	1967630	120	-nan
0	1967630	121	-nan
0	1967630	122	0
0	1967630	123	-nan
0	1967630	124	0
0	1967630	125	-nan
0	1967630	126	-nan
0	1967630	127	-nan
0	1967630	128	-nan
0	1967630	129	-nan
0	1967630	130	-nan
0	1967630	131	-nan
0	1967630	132	1
0	1967630	133	-nan
0	1967630	134	0
0	1967630	135	-nan
0	1967630	136	-nan
0	1967630	137	-nan
0	1967630	138	1
0	1967630	139	0.5
0	1967630	140	0
0	1967630	141	0
0	1967630	142	1
0	1967630	143	-nan
0	1967630	144	0
0	1967630	145	-nan
0	1967630	146	0
0	1967630	147	0
0	1967630	148	0
0	1967630	149	0
0	1967630	150	0
0	1967630	151	0
0	1967630	152	-nan
0	1967630	153	-nan
0	1967630	154	0
0	1967630	155	-nan
0	1967630	156	-nan
0	1967630	157	0
0	1967630	158	1
0	1967630	159	1
0	1967630	160	-nan
0	1967630	161	0
0	1967630	162	1
0	1967630	163	-nan
0	1967630	164	0
0	1967630	165	0.33333333333333
0	1967630	166	0
0	1967630	167	0
0	1967630	168	-nan
0	1967630	169	0
0	1967630	170	0
0	1967630	171	-nan
0	1967630	172	0
0	1967630	173	0
0	1967630	174	-nan
0	1967630	175	0
0	1967630	176	0
0	1967630	177	-nan
0	1967630	178	-nan
0	1967630	179	-nan
0	1967630	180	-nan
0	1967630	181	-nan
0	1967630	182	-nan
0	1967630	183	0
0	1967630	184	-nan
0	1967630	185	0
0	1967630	186	-nan
0	1967630	187	1
0	1967630	188	0
0	1967630	189	-nan
0	1967630	190	-nan
0	1967630	191	-nan
0	1967630	192	-nan
0	1967630	193	-nan
0	1967630	194	-nan
0	1967630	195	-nan
0	1967630	196	-nan
0	1967630	197	0
0	1967630	198	0
0	1967630	199	-nan
0	1967630	200	0
0	1967630	201	0
0	1967630	202	-nan
0	1967630	203	0
0	1967630	204	-nan
0	1967630	205	-nan
0	1967630	206	0
0	1967630	207	0
0	1967630	208	-nan
0	1967630	209	-nan
0	1967630	210	0
0	1967630	211	-nan
0	1967630	212	0
0	1967630	213	0
0	1967630	214	0
0	1967630	215	-nan
0	1967630	216	1
0	1967630	217	-nan
0	1967630	218	-nan
0	1967630	219	0
0	1967630	220	0
0	1967630	221	-nan
0	1967630	222	-nan
0	1967630	223	0
0	1967630	224	0
0	1967630	225	-nan
0	1967630	226	0
0	1967630	227	0
0	1967630	228	-nan
0	1967630	229	-nan
0	1967630	230	-nan
0	1967630	231	-nan
0	1967630	232	0
0	1967630	233	-nan
0	1967630	234	0
0	1967630	235	0
0	1967630	236	0
0	1967630	237	-nan
0	1967630	238	-nan
0	1967630	239	-nan
0	1967630	240	-nan
0	1967630	241	0
0	1967630	242	1
0	1967630	243	-nan
0	1967630	244	0
0	1967630	245	0
0	1967630	246	-nan
0	1967630	247	-nan
0	1967630	248	-nan
0	1967630	249	-nan
0	1967630	250	0
0	1967630	251	0
0	1967630	252	0
0	1967630	253	0
0	1967630	254	0
0	1967630	255	0
0	1967630	256	0
0	1967630	257	-nan
0	1967630	258	-nan
0	1967630	259	0
0	1967630	260	-nan
0	1967630	261	-nan
0	1967630	262	0
0	1967630	263	-nan
0	1967630	264	-nan
0	1967630	265	0
0	1967630	266	-nan
0	1967630	267	0
0	1967630	268	-nan
0	1967630	269	0
0	1967630	270	-nan
0	1967630	271	0
0	1967630	272	0
0	1967630	273	-nan
0	1967630	274	-nan
0	1967630	275	-nan
0	1967630	276	0
0	1967630	277	0
0	1967630	278	0
0	1967630	279	-nan
0	1967630	280	0
0	1967630	281	0
0	1967630	282	0
0	1967630	283	-nan
0	1967630	284	0
0	1967630	285	0
0	1967630	286	-nan
0	1967630	287	-nan
0	1967630	288	-nan
0	1967630	289	-nan
0	1967630	290	-nan
0	1967630	291	-nan
0	1967630	292	-nan
0	1967630	293	-nan
0	1967630	294	-nan
0	1967630	295	-nan
0	1967630	296	-nan
0	1967630	297	-nan
0	1967630	298	-nan
0	1967630	299	0
0	1967630	300	0
0	1967630	301	-nan
0	1967630	302	0
0	1967630	303	-nan
0	1967630	304	-nan
0	1967630	305	-nan
0	1967630	306	-nan
0	1967630	307	0
0	1967630	308	-nan
0	1967630	309	0
0	1967630	310	0
0	1967630	311	0
0	1967630	312	-nan
0	1967630	313	-nan
0	1967630	314	-nan
0	1967630	315	-nan
0	1967630	316	-nan
0	1967630	317	-nan
0	1967630	318	-nan
0	1967630	319	-nan
0	1967630	320	0
0	1967630	321	0
0	1967630	322	0
0	1967630	323	0
0	1967630	324	-nan
0	1967630	325	0
0	1967630	326	0
0	1967630	327	-nan
0	1967630	328	-nan
0	1967630	329	-nan
0	1967630	330	-nan
0	1967630	331	0
0	1967630	332	0
0	1967630	333	0
0	1967630	334	-nan
0	1967630	335	-nan
0	1967630	336	0
0	1967630	337	-nan
0	1967630	338	-nan
0	1967630	339	-nan
0	1967630	340	-nan
0	1967630	341	-nan
0	1967630	342	-nan
0	1967630	343	0
0	1967630	344	-nan
0	1967630	345	0
0	1967630	346	0
0	1967630	347	0
0	1967630	348	-nan
0	1967630	349	0
0	1967630	350	-nan
0	1967630	351	-nan
0	1967630	352	-nan
0	1967630	353	0
0	1967630	354	-nan
0	1967630	355	0
0	1967630	356	0
0	1967630	357	-nan
0	1967630	358	0
0	1967630	359	-nan
0	1967630	360	-nan
0	1967630	361	-nan
0	1967630	362	-nan
0	1967630	363	0
0	1967630	364	0
0	1967630	365	-nan
0	1967630	366	-nan
0	1967630	367	0
0	1967630	368	0
0	1967630	369	-nan
0	1967630	370	-nan
0	1967630	371	1
0	1967630	372	-nan
0	1967630	373	0
0	1967630	374	-nan
0	1967630	375	-nan
0	1967630	376	-nan
0	1967630	377	-nan
0	1967630	378	0
0	1967630	379	-nan
0	1967630	380	-nan
0	1967630	381	-nan
0	1967630	382	0
0	1967630	383	-nan
0	1967630	384	-nan
0	1967630	385	-nan
0	1967630	386	-nan
0	1967630	387	0
0	1967630	388	-nan
0	1967630	389	-nan
0	1967630	390	-nan
0	1967630	391	-nan
0	1967630	392	-nan
0	1967630	393	0
0	1967630	394	0
0	1967630	395	-nan
0	1967630	396	0
0	1967630	397	-nan
0	1967630	398	0
0	1967630	399	-nan
0	1967630	400	-nan
0	1967630	401	0
0	1967630	402	0
0	1967630	403	-nan
0	1967630	404	1
0	1967630	405	0
0	1967630	406	-nan
0	1967630	407	0
0	1967630	408	0
0	1967630	409	-nan
0	1967630	410	-nan
0	1967630	411	-nan
0	1967630	412	-nan
0	1967630	413	0
0	1967630	414	0
0	1967630	415	-nan
0	1967630	416	-nan
0	1967630	417	-nan
0	1967630	418	0
0	1967630	419	-nan
0	1967630	420	-nan
0	1967630	421	-nan
0	1967630	422	0
0	1967630	423	-nan
0	1967630	424	0
0	1967630	425	0
0	1967630	426	-nan
0	1967630	427	-nan
0	1967630	428	-nan
0	1967630	429	-nan
0	1967630	430	0
0	1967630	431	-nan
0	1967630	432	0
0	1967630	433	0
0	1967630	434	-nan
0	1967630	435	0
0	1967630	436	0
0	1967630	437	-nan
0	1967630	438	0
0	1967630	439	-nan
0	1967630	440	-nan
0	1967630	441	-nan
0	1967630	442	-nan
0	1967630	443	0
0	1967630	444	0
0	1967630	445	0
0	1967630	446	-nan
0	1967630	447	-nan
0	1967630	448	-nan
0	1967630	449	0
0	1967630	450	-nan
0	1967630	451	0
0	1967630	452	-nan
0	1967630	453	-nan
0	1967630	454	-nan
0	1967630	455	-nan
0	1967630	456	0
0	1967630	457	-nan
0	1967630	458	-nan
0	1967630	459	-nan
0	1967630	460	-nan
0	1967630	461	-nan
0	1967630	462	-nan
0	1967630	463	-nan
0	1967630	464	-nan
0	1967630	465	0
0	1967630	466	-nan
0	1967630	467	-nan
0	1967630	468	-nan
0	1967630	469	-nan
0	1967630	470	0
0	1967630	471	-nan
0	1967630	472	-nan
0	1967630	473	0
0	1967630	474	0
0	1967630	475	0
0	1967630	476	-nan
0	1967630	477	-nan
0	1967630	478	0
0	1967630	479	-nan
0	1967630	480	-nan
0	1967630	481	-nan
0	1967630	482	-nan
0	1967630	483	-nan
0	1967630	484	-nan
0	1967630	485	-nan
0	1967630	486	-nan
0	1967630	487	0
0	1967630	488	-nan
0	1967630	489	0
0	1967630	490	-nan
0	1967630	491	-nan
0	1967630	492	-nan
0	1967630	493	-nan
0	1967630	494	-nan
0	1967630	495	-nan
0	1967630	496	-nan
0	1967630	497	-nan
0	1967630	498	-nan
0	1967630	499	-nan
0	1967630	500	-nan
0	1967630	501	0
0	1967630	502	-nan
0	1967630	503	-nan
0	1967630	504	0
0	1967630	505	-nan
0	1967630	506	-nan
0	1967630	507	-nan
0	1967630	508	-nan
0	1967630	509	0
0	1967630	510	0
0	1967630	511	0
0	1967630	512	-nan
0	1967630	513	0
0	1967630	514	-nan
0	1967630	515	-nan
0	1967630	516	-nan
0	1967630	517	-nan
0	1967630	518	-nan
0	1967630	519	-nan
0	1967630	520	-nan
0	1967630	521	-nan
0	1967630	522	-nan
0	1967630	523	0
0	1967630	524	-nan
0	1967630	525	0
0	1967630	526	-nan
0	1967630	527	-nan
0	1967630	528	0
0	1967630	529	-nan
0	1967630	530	-nan
0	1967630	531	0
0	1967630	532	0
0	1967630	533	0
0	1967630	534	-nan
0	1967630	535	-nan
0	1967630	536	-nan
0	1967630	537	-nan
0	1967630	538	-nan
0	1967630	539	-nan
0	1967630	540	0
0	1967630	541	-nan
0	1967630	542	-nan
0	1967630	543	-nan
0	1967630	544	-nan
0	1967630	545	0
0	1967630	546	-nan
0	1967630	547	-nan
0	1967630	548	-nan
0	1967630	549	0
0	1967630	550	0
0	1967630	551	-nan
0	1967630	552	-nan
0	1967630	553	-nan
0	1967630	554	-nan
0	1967630	555	-nan
0	1967630	556	0
0	1967630	557	0
0	1967630	558	-nan
0	1967630	559	-nan
0	1967630	560	-nan
0	1967630	561	0
0	1967630	562	-nan
0	1967630	563	-nan
0	1967630	564	0
0	1967630	565	-nan
0	1967630	566	-nan
0	1967630	567	-nan
0	1967630	568	-nan
0	1967630	569	0
0	1967630	570	-nan
0	1967630	571	0
0	1967630	572	0
0	1967630	573	-nan
0	1967630	574	-nan
0	1967630	575	0
0	1967630	576	-nan
0	1967630	577	-nan
0	1967630	578	-nan
0	1967630	579	-nan
0	1967630	580	0
0	1967630	581	-nan
0	1967630	582	-nan
0	1967630	583	-nan
0	1967630	584	-nan
0	1967630	585	-nan
0	1967630	586	-nan
0	1967630	587	-nan
0	1967630	588	0
0	1967630	589	-nan
0	1967630	590	-nan
0	1967630	591	-nan
0	1967630	592	-nan
0	1967630	593	-nan
0	1967630	594	0
0	1967630	595	-nan
0	1967630	596	0
0	1967630	597	-nan
0	1967630	598	-nan
0	1967630	599	-nan
0	1967630	600	-nan
0	1967630	601	-nan
0	1967630	602	-nan
0	1967630	603	-nan
0	1967630	604	-nan
0	1967630	605	-nan
0	1967630	606	-nan
0	1967630	607	-nan
0	1967630	608	-nan
0	1967630	609	-nan
0	1967630	610	0
0	1967630	611	-nan
0	1967630	612	0
0	1967630	613	-nan
0	1967630	614	0
0	1967630	615	-nan
0	1967630	616	-nan
0	1967630	617	-nan
0	1967630	618	-nan
0	1967630	619	-nan
0	1967630	620	0
0	1967630	621	-nan
0	1967630	622	0
0	1967630	623	0
0	1967630	624	-nan
0	1967630	625	-nan
0	1967630	626	-nan
0	1967630	627	0
0	1967630	628	0
0	1967630	629	-nan
0	1967630	630	-nan
0	1967630	631	-nan
0	1967630	632	0
0	1967630	633	-nan
0	1967630	634	0
0	1967630	635	0
0	1967630	636	-nan
0	1967630	637	0
0	1967630	638	-nan
0	1967630	639	-nan
0	1967630	640	0
0	1967630	641	-nan
0	1967630	642	1
0	1967630	643	-nan
0	1967630	644	-nan
0	1967630	645	-nan
0	1967630	646	-nan
0	1967630	647	-nan
0	1967630	648	-nan
0	1967630	649	0
0	1967630	650	0
0	1967630	651	0
0	1967630	652	-nan
0	1967630	653	-nan
0	1967630	654	-nan
0	1967630	655	-nan
0	1967630	656	-nan
0	1967630	657	-nan
0	1967630	658	0
0	1967630	659	-nan
0	1967630	660	-nan
0	1967630	661	-nan
0	1967630	662	-nan
0	1967630	663	-nan
0	1967630	664	0
0	1967630	665	-nan
0	1967630	666	-nan
0	1967630	667	-nan
0	1967630	668	-nan
0	1967630	669	0
0	1967630	670	0
0	1967630	671	-nan
0	1967630	672	-nan
0	1967630	673	-nan
0	1967630	674	-nan
0	1967630	675	-nan
0	1967630	676	-nan
0	1967630	677	-nan
0	1967630	678	0
0	1967630	679	0
0	1967630	680	0
0	1967630	681	0
0	1967630	682	-nan
0	1967630	683	-nan
0	1967630	684	-nan
0	1967630	685	-nan
0	1967630	686	-nan
0	1967630	687	-nan
0	1967630	688	-nan
0	1967630	689	-nan
0	1967630	690	-nan
0	1967630	691	0
0	1967630	692	-nan
0	1967630	693	-nan
0	1967630	694	-nan
0	1967630	695	0
0	1967630	696	-nan
0	1967630	697	-nan
0	1967630	698	-nan
0	1967630	699	-nan
0	1967630	700	-nan
0	1967630	701	-nan
0	1967630	702	-nan
0	1967630	703	-nan
0	1967630	704	0
0	1967630	705	-nan
0	1967630	706	-nan
0	1967630	707	0
0	1967630	708	-nan
0	1967630	709	-nan
0	1967630	710	0
0	1967630	711	-nan
0	1967630	712	0
0	1967630	713	-nan
0	1967630	714	0
0	1967630	715	-nan
0	1967630	716	-nan
0	1967630	717	-nan
0	1967630	718	-nan
0	1967630	719	-nan
0	1967630	720	0
0	1967630	721	-nan
0	1967630	722	-nan
0	1967630	723	-nan
0	1967630	724	-nan
0	1967630	725	0
0	1967630	726	-nan
0	1967630	727	-nan
0	1967630	728	-nan
0	1967630	729	-nan
0	1967630	730	-nan
0	1967630	731	0
0	1967630	732	-nan
0	1967630	733	-nan
0	1967630	734	0
0	1967630	735	0
0	1967630	736	-nan
0	1967630	737	-nan
0	1967630	738	0
0	1967630	739	0
0	1967630	740	-nan
0	1967630	741	-nan
0	1967630	742	0
0	1967630	743	0
0	1967630	744	-nan
0	1967630	745	-nan
0	1967630	746	0
0	1967630	747	-nan
0	1967630	748	0
0	1967630	749	-nan
0	1967630	750	-nan
0	1967630	751	-nan
0	1967630	752	-nan
0	1967630	753	-nan
0	1967630	754	0
0	1967630	755	-nan
0	1967630	756	0
0	1967630	757	-nan
0	1967630	758	-nan
0	1967630	759	-nan
0	1967630	760	-nan
0	1967630	761	-nan
0	1967630	762	-nan
0	1967630	763	-nan
0	1967630	764	0
0	1967630	765	-nan
0	1967630	766	0
0	1967630	767	-nan
0	1967630	768	-nan
0	1967630	769	-nan
0	1967630	770	-nan
0	1967630	771	0
0	1967630	772	-nan
0	1967630	773	-nan
0	1967630	774	0
0	1967630	775	-nan
0	1967630	776	0
0	1967630	777	-nan
0	1967630	778	-nan
0	1967630	779	0
0	1967630	780	0
0	1967630	781	-nan
0	1967630	782	-nan
0	1967630	783	0
0	1967630	784	-nan
0	1967630	785	-nan
0	1967630	786	-nan
0	1967630	787	-nan
0	1967630	788	-nan
0	1967630	789	0
0	1967630	790	-nan
0	1967630	791	0
0	1967630	792	-nan
0	1967630	793	0
0	1967630	794	-nan
0	1967630	795	-nan
0	1967630	796	-nan
0	1967630	797	0
0	1967630	798	-nan
0	1967630	799	-nan
0	1967630	800	-nan
0	1967630	801	-nan
0	1967630	802	-nan
0	1967630	803	-nan
0	1967630	804	0
0	1967630	805	-nan
0	1967630	806	-nan
0	1967630	807	-nan
0	1967630	808	-nan
0	1967630	809	0
0	1967630	810	-nan
0	1967630	811	-nan
0	1967630	812	0
0	1967630	813	-nan
0	1967630	814	-nan
0	1967630	815	-nan
0	1967630	816	-nan
0	1967630	817	-nan
0	1967630	818	-nan
0	1967630	819	-nan
0	1967630	820	-nan
0	1967630	821	-nan
0	1967630	822	0
0	1967630	823	-nan
0	1967630	824	-nan
0	1967630	825	0
0	1967630	826	-nan
0	1967630	827	-nan
0	1967630	828	-nan
0	1967630	829	-nan
0	1967630	830	-nan
0	1967630	831	-nan
0	1967630	832	-nan
0	1967630	833	0
0	1967630	834	-nan
0	1967630	835	-nan
0	1967630	836	0
0	1967630	837	0
0	1967630	838	-nan
0	1967630	839	-nan
0	1967630	840	-nan
0	1967630	841	-nan
0	1967630	842	-nan
0	1967630	843	0
0	1967630	844	-nan
0	1967630	845	0
0	1967630	846	-nan
0	1967630	847	-nan
0	1967630	848	-nan
0	1967630	849	-nan
0	1967630	850	0
0	1967630	851	-nan
0	1967630	852	-nan
0	1967630	853	-nan
0	1967630	854	0
0	1967630	855	0
0	1967630	856	-nan
0	1967630	857	0
0	1967630	858	-nan
0	1967630	859	-nan
0	1967630	860	-nan
0	1967630	861	0
0	1967630	862	-nan
0	1967630	863	0
0	1967630	864	-nan
0	1967630	865	-nan
0	1967630	866	-nan
0	1967630	867	-nan
0	1967630	868	-nan
0	1967630	869	-nan
0	1967630	870	-nan
0	1967630	871	-nan
0	1967630	872	-nan
0	1967630	873	-nan
0	1967630	874	-nan
0	1967630	875	0
0	1967630	876	-nan
0	1967630	877	-nan
0	1967630	878	-nan
0	1967630	879	-nan
0	1967630	880	-nan
0	1967630	881	-nan
0	1967630	882	-nan
0	1967630	883	-nan
0	1967630	884	-nan
0	1967630	885	-nan
0	1967630	886	-nan
0	1967630	887	-nan
0	1967630	888	0
0	1967630	889	-nan
0	1967630	890	-nan
0	1967630	891	-nan
0	1967630	892	0
0	1967630	893	0
0	1967630	894	-nan
0	1967630	895	-nan
0	1967630	896	0
0	1967630	897	0
0	1967630	898	-nan
0	1967630	899	-nan
0	1967630	900	0
0	1967630	901	0
0	1967630	902	-nan
0	1967630	903	-nan
0	1967630	904	-nan
0	1967630	905	-nan
0	1967630	906	-nan
0	1967630	907	-nan
0	1967630	908	-nan
0	1967630	909	-nan
0	1967630	910	-nan
0	1967630	911	0
0	1967630	912	-nan
0	1967630	913	-nan
0	1967630	914	-nan
0	1967630	915	0
0	1967630	916	0
0	1967630	917	-nan
0	1967630	918	-nan
0	1967630	919	-nan
0	1967630	920	-nan
0	1967630	921	-nan
0	1967630	922	-nan
0	1967630	923	-nan
0	1967630	924	-nan
0	1967630	925	-nan
0	1967630	926	-nan
0	1967630	927	-nan
0	1967630	928	-nan
0	1967630	929	-nan
0	1967630	930	-nan
0	1967630	931	-nan
0	1967630	932	0
0	1967630	933	-nan
0	1967630	934	-nan
0	1967630	935	-nan
0	1967630	936	0
0	1967630	937	-nan
0	1967630	938	0
0	1967630	939	-nan
0	1967630	940	-nan
0	1967630	941	-nan
0	1967630	942	0
0	1967630	943	-nan
0	1967630	944	-nan
0	1967630	945	-nan
0	1967630	946	-nan
0	1967630	947	-nan
0	1967630	948	-nan
0	1967630	949	0
0	1967630	950	-nan
0	1967630	951	-nan
0	1967630	952	-nan
0	1967630	953	-nan
0	1967630	954	-nan
0	1967630	955	0
0	1967630	956	-nan
0	1967630	957	0
0	1967630	958	-nan
0	1967630	959	-nan
0	1967630	960	-nan
0	1967630	961	0
0	1967630	962	0
0	1967630	963	0
0	1967630	964	0
0	1967630	965	-nan
0	1967630	966	-nan
0	1967630	967	-nan
0	1967630	968	-nan
0	1967630	969	-nan
0	1967630	970	-nan
0	1967630	971	-nan
0	1967630	972	-nan
0	1967630	973	-nan
0	1967630	974	-nan
0	1967630	975	0
0	1967630	976	-nan
0	1967630	977	-nan
0	1967630	978	-nan
0	1967630	979	-nan
0	1967630	980	0
0	1967630	981	-nan
0	1967630	982	-nan
0	1967630	983	0
0	1967630	984	-nan
0	1967630	985	0
0	1967630	986	-nan
0	1967630	987	-nan
0	1967630	988	-nan
0	1967630	989	-nan
0	1967630	990	-nan
0	1967630	991	-nan
0	1967630	992	-nan
0	1967630	993	-nan
0	1967630	994	-nan
0	1967630	995	0
0	1967630	996	-nan
0	1967630	997	-nan
0	1967630	998	-nan
0	1967630	999	0
0	1967630	1000	-nan
0	1967630	1001	-nan
0	1967630	1002	0
0	1967630	1003	-nan
0	1967630	1004	-nan
0	1967630	1005	-nan
0	1967630	1006	-nan
0	1967630	1007	-nan
0	1967630	1008	0
0	1967630	1009	-nan
0	1967630	1010	-nan
0	1967630	1011	-nan
0	1967630	1012	-nan
0	1967630	1013	-nan
0	1967630	1014	-nan
0	1967630	1015	-nan
0	1967630	1016	-nan
0	1967630	1017	0
0	1967630	1018	0
0	1967630	1019	-nan
0	1967630	1020	-nan
0	1967630	1021	-nan
0	1967630	1022	-nan
0	1967630	1023	-nan
0	1967630	1024	-nan
0	1967630	1025	-nan
0	1967630	1026	-nan
0	1967630	1027	-nan
0	1967630	1028	-nan
0	1967630	1029	-nan
0	1967630	1030	-nan
0	1967630	1031	0
0	1967630	1032	-nan
0	1967630	1033	-nan
0	1967630	1034	0
0	1967630	1035	0
0	1967630	1036	-nan
0	1967630	1037	-nan
0	1967630	1038	-nan
0	1967630	1039	0
0	1967630	1040	0
0	1967630	1041	-nan
0	1967630	1042	0
0	1967630	1043	-nan
0	1967630	1044	0
0	1967630	1045	-nan
0	1967630	1046	-nan
0	1967630	1047	-nan
0	1967630	1048	0
0	1967630	1049	0
0	1967630	1050	-nan
0	1967630	1051	-nan
0	1967630	1052	-nan
0	1967630	1053	-nan
0	1967630	1054	-nan
0	1967630	1055	-nan
0	1967630	1056	-nan
0	1967630	1057	-nan
0	1967630	1058	-nan
0	1967630	1059	-nan
0	1967630	1060	-nan
0	1967630	1061	0
0	1967630	1062	-nan
0	1967630	1063	-nan
0	1967630	1064	-nan
0	1967630	1065	-nan
0	1967630	1066	0
0	1967630	1067	-nan
0	1967630	1068	-nan
0	1967630	1069	-nan
0	1967630	1070	-nan
0	1967630	1071	-nan
0	1967630	1072	0
0	1967630	1073	0
0	1967630	1074	-nan
0	1967630	1075	-nan
0	1967630	1076	-nan
0	1967630	1077	-nan
0	1967630	1078	-nan
0	1967630	1079	-nan
0	1967630	1080	-nan
0	1967630	1081	-nan
0	1967630	1082	-nan
0	1967630	1083	-nan
0	1967630	1084	-nan
0	1967630	1085	-nan
0	1967630	1086	-nan
0	1967630	1087	-nan
0	1967630	1088	-nan
0	1967630	1089	-nan
0	1967630	1090	-nan
0	1967630	1091	0
0	1967630	1092	-nan
0	1967630	1093	-nan
0	1967630	1094	-nan
0	1967630	1095	-nan
0	1967630	1096	0
0	1967630	1097	0
0	1967630	1098	0
0	1967630	1099	-nan
0	1967630	1100	-nan
0	1967630	1101	-nan
0	1967630	1102	-nan
0	1967630	1103	-nan
0	1967630	1104	0
0	1967630	1105	-nan
0	1967630	1106	0
0	1967630	1107	-nan
0	1967630	1108	-nan
0	1967630	1109	-nan
0	1967630	1110	-nan
0	1967630	1111	-nan
0	1967630	1112	0
0	1967630	1113	-nan
0	1967630	1114	-nan
0	1967630	1115	0
0	1967630	1116	0
0	1967630	1117	-nan
0	1967630	1118	-nan
0	1967630	1119	0
0	1967630	1120	0
0	1967630	1121	-nan
0	1967630	1122	-nan
0	1967630	1123	-nan
0	1967630	1124	-nan
0	1967630	1125	-nan
0	1967630	1126	-nan
0	1967630	1127	-nan
0	1967630	1128	-nan
0	1967630	1129	-nan
0	1967630	1130	0
0	1967630	1131	0
0	1967630	1132	-nan
0	1967630	1133	-nan
0	1967630	1134	0
0	1967630	1135	-nan
0	1967630	1136	0
0	1967630	1137	-nan
0	1967630	1138	-nan
0	1967630	1139	-nan
0	1967630	1140	-nan
0	1967630	1141	0
0	1967630	1142	-nan
0	1967630	1143	-nan
0	1967630	1144	-nan
0	1967630	1145	-nan
0	1967630	1146	-nan
0	1967630	1147	-nan
0	1967630	1148	0
0	1967630	1149	0
0	1967630	1150	-nan
0	1967630	1151	-nan
0	1967630	1152	-nan
0	1967630	1153	-nan
0	1967630	1154	-nan
0	1967630	1155	-nan
0	1967630	1156	-nan
0	1967630	1157	-nan
0	1967630	1158	-nan
0	1967630	1159	-nan
0	1967630	1160	-nan
0	1967630	1161	-nan
0	1967630	1162	0
0	1967630	1163	-nan
0	1967630	1164	-nan
0	1967630	1165	-nan
0	1967630	1166	0
0	1967630	1167	0
0	1967630	1168	-nan
0	1967630	1169	-nan
0	1967630	1170	-nan
0	1967630	1171	-nan
0	1967630	1172	-nan
0	1967630	1173	-nan
0	1967630	1174	-nan
0	1967630	1175	-nan
0	1967630	1176	-nan
0	1967630	1177	-nan
0	1967630	1178	-nan
0	1967630	1179	-nan
0	1967630	1180	-nan
0	1967630	1181	-nan
0	1967630	1182	-nan
0	1967630	1183	-nan
0	1967630	1184	-nan
0	1967630	1185	-nan
0	1967630	1186	0
0	1967630	1187	-nan
0	1967630	1188	-nan
0	1967630	1189	-nan
0	1967630	1190	0
0	1967630	1191	-nan
0	1967630	1192	-nan
0	1967630	1193	-nan
0	1967630	1194	-nan
0	1967630	1195	-nan
0	1967630	1196	-nan
0	1967630	1197	-nan
0	1967630	1198	-nan
0	1967630	1199	-nan
0	1967630	1200	-nan
0	1967630	1201	0
0	1967630	1202	-nan
0	1967630	1203	0
0	1967630	1204	-nan
0	1967630	1205	0
0	1967630	1206	-nan
0	1967630	1207	0
0	1967630	1208	0
0	1967630	1209	-nan
0	1967630	1210	-nan
0	1967630	1211	-nan
0	1967630	1212	-nan
0	1967630	1213	-nan
0	1967630	1214	0
0	1967630	1215	-nan
0	1967630	1216	-nan
0	1967630	1217	-nan
0	1967630	1218	-nan
0	1967630	1219	-nan
0	1967630	1220	-nan
0	1967630	1221	-nan
0	1967630	1222	0
0	1967630	1223	0
0	1967630	1224	-nan
0	1967630	1225	-nan
0	1967630	1226	-nan
0	1967630	1227	-nan
0	1967630	1228	-nan
0	1967630	1229	-nan
0	1967630	1230	-nan
0	1967630	1231	-nan
0	1967630	1232	-nan
0	1967630	1233	-nan
0	1967630	1234	-nan
0	1967630	1235	-nan
0	1967630	1236	-nan
0	1967630	1237	-nan
0	1967630	1238	0
0	1967630	1239	-nan
0	1967630	1240	0
0	1967630	1241	-nan
0	1967630	1242	-nan
0	1967630	1243	-nan
0	1967630	1244	-nan
0	1967630	1245	-nan
0	1967630	1246	-nan
0	1967630	1247	-nan
0	1967630	1248	-nan
0	1967630	1249	0
0	1967630	1250	-nan
0	1967630	1251	-nan
0	1967630	1252	0
0	1967630	1253	0
0	1967630	1254	0
0	1967630	1255	-nan
0	1967630	1256	-nan
0	1967630	1257	-nan
0	1967630	1258	0
0	1967630	1259	-nan
0	1967630	1260	0
0	1967630	1261	-nan
0	1967630	1262	-nan
0	1967630	1263	-nan
0	1967630	1264	-nan
0	1967630	1265	-nan
0	1967630	1266	-nan
0	1967630	1267	-nan
0	1967630	1268	0
0	1967630	1269	-nan
0	1967630	1270	-nan
0	1967630	1271	-nan
0	1967630	1272	-nan
0	1967630	1273	-nan
0	1967630	1274	-nan
0	1967630	1275	-nan
0	1967630	1276	0
0	1967630	1277	-nan
0	1967630	1278	-nan
0	1967630	1279	-nan
0	1967630	1280	-nan
0	1967630	1281	-nan
0	1967630	1282	-nan
0	1967630	1283	-nan
0	1967630	1284	-nan
0	1967630	1285	-nan
0	1967630	1286	-nan
0	1967630	1287	-nan
0	1967630	1288	-nan
0	1967630	1289	-nan
0	1967630	1290	-nan
0	1967630	1291	-nan
0	1967630	1292	-nan
0	1967630	1293	0
0	1967630	1294	-nan
0	1967630	1295	-nan
0	1967630	1296	-nan
0	1967630	1297	-nan
0	1967630	1298	0
0	1967630	1299	-nan
0	1967630	1300	-nan
0	1967630	1301	0
0	1967630	1302	0
0	1967630	1303	-nan
0	1967630	1304	0
0	1967630	1305	0
0	1967630	1306	0
0	1967630	1307	-nan
0	1967630	1308	0
0	1967630	1309	-nan
0	1967630	1310	-nan
0	1967630	1311	-nan
0	1967630	1312	-nan
0	1967630	1313	0
0	1967630	1314	-nan
0	1967630	1315	-nan
0	1967630	1316	-nan
0	1967630	1317	-nan
0	1967630	1318	-nan
0	1967630	1319	0
0	1967630	1320	-nan
0	1967630	1321	-nan
0	1967630	1322	-nan
0	1967630	1323	-nan
0	1967630	1324	-nan
0	1967630	1325	0
0	1967630	1326	-nan
0	1967630	1327	0
0	1967630	1328	-nan
0	1967630	1329	-nan
0	1967630	1330	-nan
0	1967630	1331	-nan
0	1967630	1332	-nan
0	1967630	1333	0
0	1967630	1334	-nan
0	1967630	1335	-nan
0	1967630	1336	0
0	1967630	1337	-nan
0	1967630	1338	-nan
0	1967630	1339	-nan
0	1967630	1340	-nan
0	1967630	1341	-nan
0	1967630	1342	-nan
0	1967630	1343	-nan
0	1967630	1344	0
0	1967630	1345	0
0	1967630	1346	0
0	1967630	1347	-nan
0	1967630	1348	0
0	1967630	1349	-nan
0	1967630	1350	-nan
0	1967630	1351	-nan
0	1967630	1352	-nan
0	1967630	1353	-nan
0	1967630	1354	0
0	1967630	1355	0
0	1967630	1356	-nan
0	1967630	1357	-nan
0	1967630	1358	-nan
0	1967630	1359	-nan
0	1967630	1360	-nan
0	1967630	1361	0
0	1967630	1362	-nan
0	1967630	1363	0
0	1967630	1364	-nan
0	1967630	1365	-nan
0	1967630	1366	-nan
0	1967630	1367	-nan
0	1967630	1368	0
0	1967630	1369	-nan
0	1967630	1370	-nan
0	1967630	1371	-nan
0	1967630	1372	-nan
0	1967630	1373	-nan
0	1967630	1374	-nan
0	1967630	1375	-nan
0	1967630	1376	-nan
0	1967630	1377	0
0	1967630	1378	-nan
0	1967630	1379	-nan
0	1967630	1380	-nan
0	1967630	1381	-nan
0	1967630	1382	-nan
0	1967630	1383	-nan
0	1967630	1384	-nan
0	1967630	1385	-nan
0	1967630	1386	-nan
0	1967630	1387	0
0	1967630	1388	-nan
0	1967630	1389	0
0	1967630	1390	-nan
0	1967630	1391	-nan
0	1967630	1392	-nan
0	1967630	1393	-nan
0	1967630	1394	-nan
0	1967630	1395	-nan
0	1967630	1396	-nan
0	1967630	1397	0
0	1967630	1398	0
0	1967630	1399	-nan
0	1967630	1400	-nan
0	1967630	1401	0
0	1967630	1402	-nan
0	1967630	1403	-nan
0	1967630	1404	0
0	1967630	1405	0
0	1967630	1406	-nan
0	1967630	1407	0
0	1967630	1408	-nan
0	1967630	1409	-nan
0	1967630	1410	-nan
0	1967630	1411	-nan
0	1967630	1412	0
0	1967630	1413	0
0	1967630	1414	-nan
0	1967630	1415	-nan
0	1967630	1416	-nan
0	1967630	1417	-nan
0	1967630	1418	0
0	1967630	1419	-nan
0	1967630	1420	-nan
0	1967630	1421	-nan
0	1967630	1422	-nan
0	1967630	1423	-nan
0	1967630	1424	-nan
0	1967630	1425	-nan
0	1967630	1426	-nan
0	1967630	1427	-nan
0	1967630	1428	-nan
0	1967630	1429	0
0	1967630	1430	-nan
0	1967630	1431	-nan
0	1967630	1432	-nan
0	1967630	1433	-nan
0	1967630	1434	0
0	1967630	1435	-nan
0	1967630	1436	-nan
0	1967630	1437	-nan
0	1967630	1438	-nan
0	1967630	1439	0
0	1967630	1440	0
0	1967630	1441	-nan
0	1967630	1442	-nan
0	1967630	1443	0
0	1967630	1444	-nan
0	1967630	1445	-nan
0	1967630	1446	-nan
0	1967630	1447	0
0	1967630	1448	0
0	1967630	1449	-nan
0	1967630	1450	-nan
0	1967630	1451	0
0	1967630	1452	-nan
0	1967630	1453	0
0	1967630	1454	0
0	1967630	1455	-nan
0	1967630	1456	0
0	1967630	1457	-nan
0	1967630	1458	-nan
0	1967630	1459	-nan
0	1967630	1460	-nan
0	1967630	1461	-nan
0	1967630	1462	-nan
0	1967630	1463	-nan
0	1967630	1464	-nan
0	1967630	1465	-nan
0	1967630	1466	-nan
0	1967630	1467	-nan
0	1967630	1468	-nan
0	1967630	1469	-nan
0	1967630	1470	-nan
0	1967630	1471	-nan
0	1967630	1472	-nan
0	1967630	1473	-nan
0	1967630	1474	-nan
0	1967630	1475	0
0	1967630	1476	-nan
0	1967630	1477	-nan
0	1967630	1478	0
0	1967630	1479	-nan
0	1967630	1480	-nan
0	1967630	1481	-nan
0	1967630	1482	-nan
0	1967630	1483	-nan
0	1967630	1484	-nan
0	1967630	1485	0
0	1967630	1486	0
0	1967630	1487	-nan
0	1967630	1488	-nan
0	1967630	1489	-nan
0	1967630	1490	-nan
0	1967630	1491	-nan
0	1967630	1492	-nan
0	1967630	1493	-nan
0	1967630	1494	-nan
0	1967630	1495	-nan
0	1967630	1496	0
0	1967630	1497	-nan
0	1967630	1498	-nan
0	1967630	1499	-nan
0	1967630	1500	0
0	1967630	1501	-nan
0	1967630	1502	-nan
0	1967630	1503	-nan
0	1967630	1504	0
0	1967630	1505	-nan
0	1967630	1506	-nan
0	1967630	1507	-nan
0	1967630	1508	0
0	1967630	1509	-nan
0	1967630	1510	-nan
0	1967630	1511	0
0	1967630	1512	-nan
0	1967630	1513	-nan
0	1967630	1514	-nan
0	1967630	1515	0
0	1967630	1516	-nan
0	1967630	1517	-nan
0	1967630	1518	-nan
0	1967630	1519	-nan
0	1967630	1520	-nan
0	1967630	1521	-nan
0	1967630	1522	-nan
0	1967630	1523	-nan
0	1967630	1524	-nan
0	1967630	1525	-nan
0	1967630	1526	-nan
0	1967630	1527	0
0	1967630	1528	0
0	1967630	1529	-nan
0	1967630	1530	-nan
0	1967630	1531	0
0	1967630	1532	-nan
0	1967630	1533	-nan
0	1967630	1534	-nan
0	1967630	1535	-nan
0	1967630	1536	-nan
0	1967630	1537	-nan
0	1967630	1538	0
0	1967630	1539	0
0	1967630	1540	-nan
0	1967630	1541	0
0	1967630	1542	-nan
0	1967630	1543	-nan
0	1967630	1544	-nan
0	1967630	1545	-nan
0	1967630	1546	-nan
0	1967630	1547	-nan
0	1967630	1548	-nan
0	1967630	1549	0
0	1967630	1550	-nan
0	1967630	1551	-nan
0	1967630	1552	-nan
0	1967630	1553	-nan
0	1967630	1554	-nan
0	1967630	1555	-nan
0	1967630	1556	-nan
0	1967630	1557	-nan
0	1967630	1558	-nan
0	1967630	1559	-nan
0	1967630	1560	-nan
0	1967630	1561	0
0	1967630	1562	-nan
0	1967630	1563	-nan
0	1967630	1564	-nan
0	1967630	1565	-nan
0	1967630	1566	0
0	1967630	1567	-nan
0	1967630	1568	0
0	1967630	1569	-nan
0	1967630	1570	-nan
0	1967630	1571	0
0	1967630	1572	0
0	1967630	1573	0
0	1967630	1574	-nan
0	1967630	1575	-nan
0	1967630	1576	-nan
0	1967630	1577	0
0	1967630	1578	-nan
0	1967630	1579	-nan
0	1967630	1580	-nan
0	1967630	1581	-nan
0	1967630	1582	-nan
0	1967630	1583	-nan
0	1967630	1584	-nan
0	1967630	1585	-nan
0	1967630	1586	-nan
0	1967630	1587	-nan
0	1967630	1588	0
0	1967630	1589	0
0	1967630	1590	0