file 463843623 1397826806                                       
version 2
run General-80-20140418-15:11:52-1512
attr D prob_cache
attr F nrr
attr R lru
attr a 0.8
attr configname General
attr csize 10
attr ctlg 10^8
attr datetime 20140418-15:11:52
attr experiment General
attr inifile omnetpp.ini
attr iterationvars "$net=simple_scenario, $rep=1, $priceratiovalue=6, $a=0.8, $ctlg=10^8, $F=nrr, $ttl=1000, $D=prob_cache, $R=lru, $csize=10"
attr iterationvars2 "$net=simple_scenario, $rep=1, $priceratiovalue=6, $a=0.8, $ctlg=10^8, $F=nrr, $ttl=1000, $D=prob_cache, $R=lru, $csize=10, $repetition=0"
attr measurement "$net=simple_scenario, $rep=1, $priceratiovalue=6, $a=0.8, $ctlg=10^8, $F=nrr, $ttl=1000, $D=prob_cache, $R=lru, $csize=10"
attr net simple_scenario
attr network networks.${net=simple_scenario}_network
attr priceratiovalue 6
attr processid 1512
attr rep 1
attr repetition 0
attr replication #0
attr resultdir results
attr runnumber 80
attr seedset 1
attr ttl 1000

vector 0  simple_scenario_network.node[0].content_store  hit_node[0]  ETV
0	991 15138950 1316460 1316460 1 699051 699051 0 0.2 -nan -nan
0	15139941 15747108 1316460 1316460 699052 1398102 699051 0 0 -nan -nan
0	30887049 16058895 1316460 1316460 1398103 2097153 699051 0 0 -nan -nan
0	46945944 16062495 1316460 1316460 2097154 2796204 699051 0 0 -nan -nan
0	63008439 15926619 1316460 1316460 2796205 3489213 693009 0 0 -nan -nan
vector 1  simple_scenario_network.node[1].content_store  hit_node[1]  ETV
1	78935132 15203226 1316460 1316460 1 699051 699051 0 0.2 -nan -nan
1	94138358 15761955 1316460 1316460 699052 1398102 699051 0 0 -nan -nan
1	109900313 16068621 1316460 1316460 1398103 2097153 699051 0 0 -nan -nan
1	125968934 16070313 1316460 1316460 2097154 2796204 699051 0 0 -nan -nan
1	142039247 15932865 1316460 1316460 2796205 3489213 693009 0 0 -nan -nan
vector 2  simple_scenario_network.node[2].content_store  hit_node[2]  ETV
2	157972186 15203915 1316460 1316460 1 699051 699051 0 0.5 -nan -nan
2	173176101 15762378 1316460 1316460 699052 1398102 699051 0 0 -nan -nan
2	188938479 16068447 1316460 1316460 1398103 2097153 699051 0 0 -nan -nan
2	205006926 16070355 1316460 1316460 2097154 2796204 699051 0 0 -nan -nan
2	221077281 15932961 1316460 1316460 2796205 3489213 693009 0 0 -nan -nan
vector 3  simple_scenario_network.node[3].content_store  hit_node[3]  ETV
3	237010316 15202965 1316460 1316460 1 699051 699051 0 0 -nan -nan
3	252213281 15761955 1316460 1316460 699052 1398102 699051 0 0 -nan -nan
3	267975236 16068621 1316460 1316460 1398103 2097153 699051 0 0 -nan -nan
3	284043857 16070313 1316460 1316460 2097154 2796204 699051 0 0 -nan -nan
3	300114170 15932865 1316460 1316460 2796205 3489213 693009 0 0 -nan -nan
vector 4  simple_scenario_network.node[4].content_store  hit_node[4]  ETV
4	316047109 15203652 1316460 1316460 1 699051 699051 0 0 -nan -nan
4	331250761 15762378 1316460 1316460 699052 1398102 699051 0 0 -nan -nan
4	347013139 16068447 1316460 1316460 1398103 2097153 699051 0 0 -nan -nan
4	363081586 16070355 1316460 1316460 2097154 2796204 699051 0 0 -nan -nan
4	379151941 15932961 1316460 1316460 2796205 3489213 693009 0 0 -nan -nan
vector 5  simple_scenario_network.client[0]  hdistance[0]  ETV
5	395084965 13254547 1316460 1316460 1 699051 699051 0 3 129399.28546903 388146.76485594
5	408339512 13681141 1316460 1316460 699052 1398102 699051 0 3 30116.832626676 90349.996124368
5	422020653 13981466 1316460 1316460 1398103 2097153 699051 0 3 19277.930371211 57833.58237882
5	436002119 13981144 1316460 1316460 2097154 2796204 699051 0 3 15677.980607056 47033.883684139
5	449983263 13860360 1316460 1316460 2796205 3489213 693009 0 3 12587.971853115 37763.831179665
