version 2
run General-2-20150521-11:49:12-10461
attr D fix0.1
attr F nrr
attr R lru
attr a 1
attr configname General
attr datetime 20150521-11:49:12
attr experiment General
attr inifile omnetpp.ini
attr iterationvars "$net=geant, $rep=0, $a=1, $F=nrr, $ttl=1000, $D=fix0.1, $R=lru"
attr iterationvars2 "$net=geant, $rep=0, $a=1, $F=nrr, $ttl=1000, $D=fix0.1, $R=lru, $repetition=0"
attr measurement "$net=geant, $rep=0, $a=1, $F=nrr, $ttl=1000, $D=fix0.1, $R=lru"
attr net geant
attr network networks.${net=geant}_network
attr processid 10461
attr rep 0
attr repetition 0
attr replication #0
attr resultdir results
attr runnumber 2
attr seedset 0
attr ttl 1000

vector 0  geant_network.node[0].content_store  hit_node[0]  ETV
0	6807117	1	1
0	6807117	2	1
0	6807117	3	1
0	6807117	4	1
0	6807117	5	1
0	6807117	6	1
0	6807117	7	1
0	6807117	8	1
0	6807117	9	1
0	6807117	10	1
0	6807117	11	1
0	6807117	12	1
0	6807117	13	1
0	6807117	14	1
0	6807117	15	1
0	6807117	16	1
0	6807117	17	0
0	6807117	18	0.076923076923077
0	6807117	19	1
0	6807117	20	0
0	6807117	21	1
0	6807117	22	0.71428571428571
0	6807117	23	1
0	6807117	24	0
0	6807117	25	1
0	6807117	26	0
0	6807117	27	0
0	6807117	28	0
0	6807117	29	0.83333333333333
0	6807117	30	0
0	6807117	31	0.58333333333333
0	6807117	32	0
0	6807117	33	1
0	6807117	34	0
0	6807117	35	0.5
0	6807117	36	0.6
0	6807117	37	0.83333333333333
0	6807117	38	0
0	6807117	39	1
0	6807117	40	0
0	6807117	41	0.25
0	6807117	42	0
0	6807117	43	0
0	6807117	44	0.71428571428571
0	6807117	45	0
0	6807117	46	0
0	6807117	47	0
0	6807117	48	0.6
0	6807117	49	0
0	6807117	50	1
0	6807117	51	0
0	6807117	52	0
0	6807117	53	1
0	6807117	54	0
0	6807117	55	0.83333333333333
0	6807117	56	0.5
0	6807117	57	0
0	6807117	58	0
0	6807117	59	0
0	6807117	60	-nan
0	6807117	61	0
0	6807117	62	0
0	6807117	63	1
0	6807117	64	0
0	6807117	65	-nan
0	6807117	66	0
0	6807117	67	0
0	6807117	68	0.55555555555556
0	6807117	69	0
0	6807117	70	0
0	6807117	71	0
0	6807117	72	0
0	6807117	73	0
0	6807117	74	0
0	6807117	75	-nan
0	6807117	76	0
vector 1  geant_network.node[1].content_store  hit_node[1]  ETV
1	6807117	1	-nan
1	6807117	2	-nan
1	6807117	3	-nan
1	6807117	4	-nan
1	6807117	5	-nan
1	6807117	6	-nan
1	6807117	7	-nan
1	6807117	8	-nan
1	6807117	9	-nan
1	6807117	10	-nan
1	6807117	11	-nan
1	6807117	12	-nan
1	6807117	13	-nan
1	6807117	14	-nan
1	6807117	15	-nan
1	6807117	16	-nan
1	6807117	17	0
1	6807117	18	0
1	6807117	19	-nan
1	6807117	20	-nan
1	6807117	21	-nan
1	6807117	22	0.5
1	6807117	23	-nan
1	6807117	24	-nan
1	6807117	25	0
1	6807117	26	0
1	6807117	27	0
1	6807117	28	1
1	6807117	29	0
1	6807117	30	-nan
1	6807117	31	-nan
1	6807117	32	0
1	6807117	33	-nan
1	6807117	34	-nan
1	6807117	35	-nan
1	6807117	36	-nan
1	6807117	37	0
1	6807117	38	-nan
1	6807117	39	0
1	6807117	40	0
1	6807117	41	-nan
1	6807117	42	-nan
1	6807117	43	0
1	6807117	44	0
1	6807117	45	-nan
1	6807117	46	0
1	6807117	47	-nan
1	6807117	48	0.33333333333333
1	6807117	49	0
1	6807117	50	-nan
1	6807117	51	0
1	6807117	52	-nan
1	6807117	53	-nan
1	6807117	54	1
1	6807117	55	-nan
1	6807117	56	0
1	6807117	57	0
1	6807117	58	-nan
1	6807117	59	-nan
1	6807117	60	-nan
1	6807117	61	0
1	6807117	62	-nan
1	6807117	63	1
1	6807117	64	-nan
1	6807117	65	-nan
1	6807117	66	-nan
1	6807117	67	-nan
1	6807117	68	-nan
1	6807117	69	-nan
1	6807117	70	1
1	6807117	71	-nan
1	6807117	72	0
1	6807117	73	0
1	6807117	74	-nan
1	6807117	75	-nan
1	6807117	76	0.16666666666667
vector 2  geant_network.node[2].content_store  hit_node[2]  ETV
2	6807117	1	-nan
2	6807117	2	-nan
2	6807117	3	-nan
2	6807117	4	-nan
2	6807117	5	-nan
2	6807117	6	-nan
2	6807117	7	-nan
2	6807117	8	-nan
2	6807117	9	-nan
2	6807117	10	-nan
2	6807117	11	-nan
2	6807117	12	-nan
2	6807117	13	-nan
2	6807117	14	-nan
2	6807117	15	-nan
2	6807117	16	-nan
2	6807117	17	-nan
2	6807117	18	-nan
2	6807117	19	-nan
2	6807117	20	-nan
2	6807117	21	-nan
2	6807117	22	-nan
2	6807117	23	-nan
2	6807117	24	-nan
2	6807117	25	-nan
2	6807117	26	-nan
2	6807117	27	-nan
2	6807117	28	-nan
2	6807117	29	-nan
2	6807117	30	-nan
2	6807117	31	-nan
2	6807117	32	-nan
2	6807117	33	-nan
2	6807117	34	-nan
2	6807117	35	-nan
2	6807117	36	-nan
2	6807117	37	-nan
2	6807117	38	-nan
2	6807117	39	-nan
2	6807117	40	-nan
2	6807117	41	-nan
2	6807117	42	-nan
2	6807117	43	-nan
2	6807117	44	-nan
2	6807117	45	-nan
2	6807117	46	-nan
2	6807117	47	-nan
2	6807117	48	-nan
2	6807117	49	-nan
2	6807117	50	-nan
2	6807117	51	-nan
2	6807117	52	-nan
2	6807117	53	-nan
2	6807117	54	-nan
2	6807117	55	-nan
2	6807117	56	-nan
2	6807117	57	-nan
2	6807117	58	-nan
2	6807117	59	-nan
2	6807117	60	-nan
2	6807117	61	-nan
2	6807117	62	-nan
2	6807117	63	-nan
2	6807117	64	-nan
2	6807117	65	-nan
2	6807117	66	-nan
2	6807117	67	-nan
2	6807117	68	-nan
2	6807117	69	-nan
2	6807117	70	-nan
2	6807117	71	-nan
2	6807117	72	-nan
2	6807117	73	-nan
2	6807117	74	-nan
2	6807117	75	-nan
2	6807117	76	-nan
vector 3  geant_network.node[3].content_store  hit_node[3]  ETV
3	6807117	1	-nan
3	6807117	2	-nan
3	6807117	3	-nan
3	6807117	4	-nan
3	6807117	5	-nan
3	6807117	6	-nan
3	6807117	7	-nan
3	6807117	8	-nan
3	6807117	9	-nan
3	6807117	10	-nan
3	6807117	11	-nan
3	6807117	12	-nan
3	6807117	13	-nan
3	6807117	14	-nan
3	6807117	15	-nan
3	6807117	16	-nan
3	6807117	17	-nan
3	6807117	18	-nan
3	6807117	19	-nan
3	6807117	20	-nan
3	6807117	21	-nan
3	6807117	22	-nan
3	6807117	23	-nan
3	6807117	24	-nan
3	6807117	25	-nan
3	6807117	26	-nan
3	6807117	27	-nan
3	6807117	28	-nan
3	6807117	29	-nan
3	6807117	30	-nan
3	6807117	31	-nan
3	6807117	32	-nan
3	6807117	33	-nan
3	6807117	34	-nan
3	6807117	35	-nan
3	6807117	36	0
3	6807117	37	-nan
3	6807117	38	-nan
3	6807117	39	-nan
3	6807117	40	-nan
3	6807117	41	-nan
3	6807117	42	0
3	6807117	43	0
3	6807117	44	-nan
3	6807117	45	0
3	6807117	46	-nan
3	6807117	47	-nan
3	6807117	48	-nan
3	6807117	49	-nan
3	6807117	50	-nan
3	6807117	51	-nan
3	6807117	52	-nan
3	6807117	53	-nan
3	6807117	54	0
3	6807117	55	-nan
3	6807117	56	0
3	6807117	57	-nan
3	6807117	58	1
3	6807117	59	-nan
3	6807117	60	0
3	6807117	61	0
3	6807117	62	-nan
3	6807117	63	0
3	6807117	64	-nan
3	6807117	65	-nan
3	6807117	66	0
3	6807117	67	0
3	6807117	68	-nan
3	6807117	69	-nan
3	6807117	70	0
3	6807117	71	-nan
3	6807117	72	0
3	6807117	73	1
3	6807117	74	-nan
3	6807117	75	-nan
3	6807117	76	1
vector 4  geant_network.node[4].content_store  hit_node[4]  ETV
4	6807117	1	1
4	6807117	2	1
4	6807117	3	1
4	6807117	4	1
4	6807117	5	1
4	6807117	6	1
4	6807117	7	1
4	6807117	8	1
4	6807117	9	1
4	6807117	10	1
4	6807117	11	1
4	6807117	12	0.66666666666667
4	6807117	13	0.2
4	6807117	14	0.42105263157895
4	6807117	15	0.33333333333333
4	6807117	16	1
4	6807117	17	0.54545454545455
4	6807117	18	0.75
4	6807117	19	0.66666666666667
4	6807117	20	1
4	6807117	21	0
4	6807117	22	0.5
4	6807117	23	0.5
4	6807117	24	1
4	6807117	25	0.2
4	6807117	26	0.125
4	6807117	27	0
4	6807117	28	0
4	6807117	29	0
4	6807117	30	0
4	6807117	31	0.4
4	6807117	32	0
4	6807117	33	0
4	6807117	34	0.28571428571429
4	6807117	35	0
4	6807117	36	0.63636363636364
4	6807117	37	0
4	6807117	38	0
4	6807117	39	0.8
4	6807117	40	0.5
4	6807117	41	0
4	6807117	42	0
4	6807117	43	0
4	6807117	44	0.85714285714286
4	6807117	45	1
4	6807117	46	0
4	6807117	47	1
4	6807117	48	1
4	6807117	49	0
4	6807117	50	0
4	6807117	51	0
4	6807117	52	0.16666666666667
4	6807117	53	0
4	6807117	54	0
4	6807117	55	0
4	6807117	56	0.2
4	6807117	57	0
4	6807117	58	0
4	6807117	59	0
4	6807117	60	0
4	6807117	61	0
4	6807117	62	0.33333333333333
4	6807117	63	0.81818181818182
4	6807117	64	0.66666666666667
4	6807117	65	0
4	6807117	66	0
4	6807117	67	0.9
4	6807117	68	0
4	6807117	69	0
4	6807117	70	0
4	6807117	71	0
4	6807117	72	0
4	6807117	73	0
4	6807117	74	0
4	6807117	75	0
4	6807117	76	0
vector 5  geant_network.node[5].content_store  hit_node[5]  ETV
5	6807117	1	1
5	6807117	2	1
5	6807117	3	1
5	6807117	4	1
5	6807117	5	1
5	6807117	6	1
5	6807117	7	1
5	6807117	8	1
5	6807117	9	0.66666666666667
5	6807117	10	1
5	6807117	11	1
5	6807117	12	1
5	6807117	13	0.77777777777778
5	6807117	14	0.64285714285714
5	6807117	15	0
5	6807117	16	1
5	6807117	17	0.23529411764706
5	6807117	18	1
5	6807117	19	1
5	6807117	20	1
5	6807117	21	0
5	6807117	22	0
5	6807117	23	0.46153846153846
5	6807117	24	0.8
5	6807117	25	0
5	6807117	26	0
5	6807117	27	0
5	6807117	28	0.71428571428571
5	6807117	29	0.9
5	6807117	30	0.88888888888889
5	6807117	31	1
5	6807117	32	0.16666666666667
5	6807117	33	0
5	6807117	34	0
5	6807117	35	0
5	6807117	36	0.72727272727273
5	6807117	37	0
5	6807117	38	0
5	6807117	39	0
5	6807117	40	0
5	6807117	41	0
5	6807117	42	0
5	6807117	43	1
5	6807117	44	0
5	6807117	45	0
5	6807117	46	0.375
5	6807117	47	1
5	6807117	48	0
5	6807117	49	0
5	6807117	50	0
5	6807117	51	0
5	6807117	52	0.25
5	6807117	53	0
5	6807117	54	0
5	6807117	55	0
5	6807117	56	0.55555555555556
5	6807117	57	1
5	6807117	58	0
5	6807117	59	0.2
5	6807117	60	1
5	6807117	61	0.875
5	6807117	62	0.75
5	6807117	63	0
5	6807117	64	0
5	6807117	65	0.45454545454545
5	6807117	66	0
5	6807117	67	0
5	6807117	68	0.83333333333333
5	6807117	69	0
5	6807117	70	-nan
5	6807117	71	0
5	6807117	72	1
5	6807117	73	0
5	6807117	74	0
5	6807117	75	0
5	6807117	76	0.81818181818182
vector 6  geant_network.node[6].content_store  hit_node[6]  ETV
6	6807117	1	1
6	6807117	2	1
6	6807117	3	1
6	6807117	4	1
6	6807117	5	1
6	6807117	6	1
6	6807117	7	1
6	6807117	8	1
6	6807117	9	1
6	6807117	10	1
6	6807117	11	1
6	6807117	12	1
6	6807117	13	1
6	6807117	14	1
6	6807117	15	1
6	6807117	16	1
6	6807117	17	0
6	6807117	18	1
6	6807117	19	0
6	6807117	20	1
6	6807117	21	0.7
6	6807117	22	1
6	6807117	23	1
6	6807117	24	1
6	6807117	25	1
6	6807117	26	0.33333333333333
6	6807117	27	1
6	6807117	28	0
6	6807117	29	0.5
6	6807117	30	0.5
6	6807117	31	0.33333333333333
6	6807117	32	1
6	6807117	33	1
6	6807117	34	1
6	6807117	35	1
6	6807117	36	0.875
6	6807117	37	0
6	6807117	38	0
6	6807117	39	1
6	6807117	40	1
6	6807117	41	1
6	6807117	42	0
6	6807117	43	0.090909090909091
6	6807117	44	1
6	6807117	45	0.5
6	6807117	46	0
6	6807117	47	1
6	6807117	48	0.33333333333333
6	6807117	49	1
6	6807117	50	1
6	6807117	51	0
6	6807117	52	0
6	6807117	53	1
6	6807117	54	0
6	6807117	55	0
6	6807117	56	0.875
6	6807117	57	0
6	6807117	58	0
6	6807117	59	1
6	6807117	60	0
6	6807117	61	0
6	6807117	62	0.5
6	6807117	63	0
6	6807117	64	0.75
6	6807117	65	0.75
6	6807117	66	0
6	6807117	67	0.33333333333333
6	6807117	68	0.33333333333333
6	6807117	69	0.33333333333333
6	6807117	70	1
6	6807117	71	0
6	6807117	72	0
6	6807117	73	0
6	6807117	74	-nan
6	6807117	75	0
6	6807117	76	0
vector 7  geant_network.node[7].content_store  hit_node[7]  ETV
7	6807117	1	-nan
7	6807117	2	-nan
7	6807117	3	-nan
7	6807117	4	-nan
7	6807117	5	-nan
7	6807117	6	-nan
7	6807117	7	-nan
7	6807117	8	-nan
7	6807117	9	-nan
7	6807117	10	-nan
7	6807117	11	-nan
7	6807117	12	-nan
7	6807117	13	-nan
7	6807117	14	-nan
7	6807117	15	-nan
7	6807117	16	-nan
7	6807117	17	0
7	6807117	18	-nan
7	6807117	19	-nan
7	6807117	20	-nan
7	6807117	21	-nan
7	6807117	22	-nan
7	6807117	23	-nan
7	6807117	24	-nan
7	6807117	25	-nan
7	6807117	26	0.57142857142857
7	6807117	27	-nan
7	6807117	28	-nan
7	6807117	29	-nan
7	6807117	30	-nan
7	6807117	31	-nan
7	6807117	32	-nan
7	6807117	33	-nan
7	6807117	34	-nan
7	6807117	35	-nan
7	6807117	36	-nan
7	6807117	37	0
7	6807117	38	1
7	6807117	39	-nan
7	6807117	40	-nan
7	6807117	41	-nan
7	6807117	42	1
7	6807117	43	1
7	6807117	44	-nan
7	6807117	45	0
7	6807117	46	-nan
7	6807117	47	-nan
7	6807117	48	1
7	6807117	49	-nan
7	6807117	50	-nan
7	6807117	51	-nan
7	6807117	52	-nan
7	6807117	53	-nan
7	6807117	54	0
7	6807117	55	0
7	6807117	56	0
7	6807117	57	0
7	6807117	58	0.5
7	6807117	59	-nan
7	6807117	60	0
7	6807117	61	-nan
7	6807117	62	0
7	6807117	63	0
7	6807117	64	0
7	6807117	65	0
7	6807117	66	0
7	6807117	67	0
7	6807117	68	-nan
7	6807117	69	0
7	6807117	70	0
7	6807117	71	0
7	6807117	72	-nan
7	6807117	73	-nan
7	6807117	74	-nan
7	6807117	75	0
7	6807117	76	-nan
vector 8  geant_network.node[8].content_store  hit_node[8]  ETV
8	6807117	1	-nan
8	6807117	2	-nan
8	6807117	3	-nan
8	6807117	4	-nan
8	6807117	5	-nan
8	6807117	6	-nan
8	6807117	7	-nan
8	6807117	8	-nan
8	6807117	9	-nan
8	6807117	10	-nan
8	6807117	11	-nan
8	6807117	12	-nan
8	6807117	13	-nan
8	6807117	14	-nan
8	6807117	15	-nan
8	6807117	16	-nan
8	6807117	17	-nan
8	6807117	18	-nan
8	6807117	19	-nan
8	6807117	20	-nan
8	6807117	21	-nan
8	6807117	22	-nan
8	6807117	23	-nan
8	6807117	24	-nan
8	6807117	25	-nan
8	6807117	26	0
8	6807117	27	-nan
8	6807117	28	-nan
8	6807117	29	-nan
8	6807117	30	-nan
8	6807117	31	-nan
8	6807117	32	-nan
8	6807117	33	-nan
8	6807117	34	-nan
8	6807117	35	-nan
8	6807117	36	-nan
8	6807117	37	0.5
8	6807117	38	-nan
8	6807117	39	-nan
8	6807117	40	-nan
8	6807117	41	-nan
8	6807117	42	0
8	6807117	43	1
8	6807117	44	-nan
8	6807117	45	-nan
8	6807117	46	-nan
8	6807117	47	-nan
8	6807117	48	-nan
8	6807117	49	-nan
8	6807117	50	-nan
8	6807117	51	-nan
8	6807117	52	-nan
8	6807117	53	-nan
8	6807117	54	-nan
8	6807117	55	1
8	6807117	56	0
8	6807117	57	0
8	6807117	58	0
8	6807117	59	-nan
8	6807117	60	-nan
8	6807117	61	-nan
8	6807117	62	-nan
8	6807117	63	-nan
8	6807117	64	-nan
8	6807117	65	-nan
8	6807117	66	0
8	6807117	67	-nan
8	6807117	68	-nan
8	6807117	69	1
8	6807117	70	-nan
8	6807117	71	-nan
8	6807117	72	-nan
8	6807117	73	-nan
8	6807117	74	-nan
8	6807117	75	-nan
8	6807117	76	-nan
vector 9  geant_network.node[9].content_store  hit_node[9]  ETV
9	6807117	1	1
9	6807117	2	1
9	6807117	3	1
9	6807117	4	1
9	6807117	5	1
9	6807117	6	1
9	6807117	7	1
9	6807117	8	1
9	6807117	9	1
9	6807117	10	1
9	6807117	11	1
9	6807117	12	0.53333333333333
9	6807117	13	1
9	6807117	14	0
9	6807117	15	1
9	6807117	16	0.7
9	6807117	17	1
9	6807117	18	0.78571428571429
9	6807117	19	1
9	6807117	20	0
9	6807117	21	1
9	6807117	22	0
9	6807117	23	1
9	6807117	24	0.25
9	6807117	25	0
9	6807117	26	1
9	6807117	27	1
9	6807117	28	0.5
9	6807117	29	0.375
9	6807117	30	0.875
9	6807117	31	0
9	6807117	32	0
9	6807117	33	0
9	6807117	34	0.25
9	6807117	35	0
9	6807117	36	0
9	6807117	37	0.75
9	6807117	38	0.22222222222222
9	6807117	39	0.88888888888889
9	6807117	40	0.625
9	6807117	41	0
9	6807117	42	0
9	6807117	43	0
9	6807117	44	1
9	6807117	45	0
9	6807117	46	0
9	6807117	47	1
9	6807117	48	0
9	6807117	49	0
9	6807117	50	0
9	6807117	51	0
9	6807117	52	0
9	6807117	53	0.6
9	6807117	54	0.33333333333333
9	6807117	55	0
9	6807117	56	0
9	6807117	57	0.33333333333333
9	6807117	58	0.33333333333333
9	6807117	59	0
9	6807117	60	0
9	6807117	61	0
9	6807117	62	0
9	6807117	63	0
9	6807117	64	0
9	6807117	65	0
9	6807117	66	0.6
9	6807117	67	0.33333333333333
9	6807117	68	0
9	6807117	69	0.16666666666667
9	6807117	70	0
9	6807117	71	0.25
9	6807117	72	0
9	6807117	73	0
9	6807117	74	0
9	6807117	75	-nan
9	6807117	76	0.66666666666667
vector 10  geant_network.node[10].content_store  hit_node[10]  ETV
10	6807117	1	1
10	6807117	2	1
10	6807117	3	1
10	6807117	4	1
10	6807117	5	1
10	6807117	6	1
10	6807117	7	1
10	6807117	8	1
10	6807117	9	1
10	6807117	10	1
10	6807117	11	1
10	6807117	12	1
10	6807117	13	1
10	6807117	14	1
10	6807117	15	1
10	6807117	16	1
10	6807117	17	1
10	6807117	18	1
10	6807117	19	1
10	6807117	20	1
10	6807117	21	0.27272727272727
10	6807117	22	1
10	6807117	23	1
10	6807117	24	1
10	6807117	25	1
10	6807117	26	1
10	6807117	27	0.53846153846154
10	6807117	28	1
10	6807117	29	1
10	6807117	30	1
10	6807117	31	1
10	6807117	32	1
10	6807117	33	1
10	6807117	34	1
10	6807117	35	1
10	6807117	36	0.875
10	6807117	37	1
10	6807117	38	1
10	6807117	39	1
10	6807117	40	0.71428571428571
10	6807117	41	1
10	6807117	42	1
10	6807117	43	0
10	6807117	44	0.375
10	6807117	45	0
10	6807117	46	0.875
10	6807117	47	0
10	6807117	48	0.71428571428571
10	6807117	49	0.25
10	6807117	50	1
10	6807117	51	0
10	6807117	52	1
10	6807117	53	0.75
10	6807117	54	0
10	6807117	55	0
10	6807117	56	0
10	6807117	57	0.66666666666667
10	6807117	58	0
10	6807117	59	0
10	6807117	60	0.71428571428571
10	6807117	61	0.8
10	6807117	62	1
10	6807117	63	0.75
10	6807117	64	1
10	6807117	65	0.6
10	6807117	66	0
10	6807117	67	1
10	6807117	68	0.5
10	6807117	69	0
10	6807117	70	1
10	6807117	71	0
10	6807117	72	1
10	6807117	73	0
10	6807117	74	0
10	6807117	75	1
10	6807117	76	0
vector 11  geant_network.node[11].content_store  hit_node[11]  ETV
11	6807117	1	1
11	6807117	2	1
11	6807117	3	1
11	6807117	4	1
11	6807117	5	1
11	6807117	6	1
11	6807117	7	1
11	6807117	8	1
11	6807117	9	0.78571428571429
11	6807117	10	1
11	6807117	11	1
11	6807117	12	1
11	6807117	13	1
11	6807117	14	1
11	6807117	15	0
11	6807117	16	1
11	6807117	17	0.77777777777778
11	6807117	18	0.66666666666667
11	6807117	19	0.85714285714286
11	6807117	20	0
11	6807117	21	1
11	6807117	22	0
11	6807117	23	0
11	6807117	24	0.42857142857143
11	6807117	25	0.5
11	6807117	26	0.25
11	6807117	27	0.16666666666667
11	6807117	28	0.5
11	6807117	29	0
11	6807117	30	1
11	6807117	31	0.8
11	6807117	32	1
11	6807117	33	1
11	6807117	34	0.75
11	6807117	35	0
11	6807117	36	0.33333333333333
11	6807117	37	0.5
11	6807117	38	0
11	6807117	39	0
11	6807117	40	0.6
11	6807117	41	0
11	6807117	42	0
11	6807117	43	0
11	6807117	44	0.75
11	6807117	45	0
11	6807117	46	0.5
11	6807117	47	0.33333333333333
11	6807117	48	1
11	6807117	49	1
11	6807117	50	0
11	6807117	51	0
11	6807117	52	1
11	6807117	53	1
11	6807117	54	0
11	6807117	55	1
11	6807117	56	0
11	6807117	57	0
11	6807117	58	0.85714285714286
11	6807117	59	1
11	6807117	60	0
11	6807117	61	0
11	6807117	62	0
11	6807117	63	0.8
11	6807117	64	0
11	6807117	65	0.33333333333333
11	6807117	66	0.55555555555556
11	6807117	67	0
11	6807117	68	0
11	6807117	69	0
11	6807117	70	0
11	6807117	71	0
11	6807117	72	0
11	6807117	73	0
11	6807117	74	0.83333333333333
11	6807117	75	0
11	6807117	76	0
vector 12  geant_network.node[12].content_store  hit_node[12]  ETV
12	6807117	1	-nan
12	6807117	2	-nan
12	6807117	3	-nan
12	6807117	4	-nan
12	6807117	5	-nan
12	6807117	6	-nan
12	6807117	7	-nan
12	6807117	8	-nan
12	6807117	9	-nan
12	6807117	10	-nan
12	6807117	11	-nan
12	6807117	12	-nan
12	6807117	13	-nan
12	6807117	14	-nan
12	6807117	15	-nan
12	6807117	16	-nan
12	6807117	17	-nan
12	6807117	18	-nan
12	6807117	19	-nan
12	6807117	20	-nan
12	6807117	21	-nan
12	6807117	22	-nan
12	6807117	23	-nan
12	6807117	24	-nan
12	6807117	25	-nan
12	6807117	26	-nan
12	6807117	27	0
12	6807117	28	-nan
12	6807117	29	-nan
12	6807117	30	-nan
12	6807117	31	-nan
12	6807117	32	-nan
12	6807117	33	-nan
12	6807117	34	-nan
12	6807117	35	-nan
12	6807117	36	0
12	6807117	37	-nan
12	6807117	38	-nan
12	6807117	39	-nan
12	6807117	40	-nan
12	6807117	41	-nan
12	6807117	42	0.75
12	6807117	43	0
12	6807117	44	-nan
12	6807117	45	1
12	6807117	46	-nan
12	6807117	47	-nan
12	6807117	48	-nan
12	6807117	49	-nan
12	6807117	50	-nan
12	6807117	51	0
12	6807117	52	-nan
12	6807117	53	-nan
12	6807117	54	0.44444444444444
12	6807117	55	-nan
12	6807117	56	0
12	6807117	57	-nan
12	6807117	58	1
12	6807117	59	-nan
12	6807117	60	0
12	6807117	61	0
12	6807117	62	-nan
12	6807117	63	-nan
12	6807117	64	-nan
12	6807117	65	-nan
12	6807117	66	0
12	6807117	67	-nan
12	6807117	68	0
12	6807117	69	0
12	6807117	70	-nan
12	6807117	71	0.2
12	6807117	72	-nan
12	6807117	73	0
12	6807117	74	0
12	6807117	75	-nan
12	6807117	76	0
vector 13  geant_network.node[13].content_store  hit_node[13]  ETV
13	6807117	1	-nan
13	6807117	2	-nan
13	6807117	3	-nan
13	6807117	4	-nan
13	6807117	5	-nan
13	6807117	6	-nan
13	6807117	7	-nan
13	6807117	8	-nan
13	6807117	9	-nan
13	6807117	10	-nan
13	6807117	11	-nan
13	6807117	12	-nan
13	6807117	13	-nan
13	6807117	14	-nan
13	6807117	15	-nan
13	6807117	16	-nan
13	6807117	17	-nan
13	6807117	18	-nan
13	6807117	19	-nan
13	6807117	20	-nan
13	6807117	21	-nan
13	6807117	22	-nan
13	6807117	23	-nan
13	6807117	24	-nan
13	6807117	25	-nan
13	6807117	26	-nan
13	6807117	27	-nan
13	6807117	28	-nan
13	6807117	29	-nan
13	6807117	30	-nan
13	6807117	31	-nan
13	6807117	32	-nan
13	6807117	33	-nan
13	6807117	34	-nan
13	6807117	35	-nan
13	6807117	36	-nan
13	6807117	37	-nan
13	6807117	38	-nan
13	6807117	39	-nan
13	6807117	40	-nan
13	6807117	41	-nan
13	6807117	42	-nan
13	6807117	43	-nan
13	6807117	44	-nan
13	6807117	45	-nan
13	6807117	46	-nan
13	6807117	47	-nan
13	6807117	48	-nan
13	6807117	49	-nan
13	6807117	50	-nan
13	6807117	51	0
13	6807117	52	-nan
13	6807117	53	-nan
13	6807117	54	-nan
13	6807117	55	-nan
13	6807117	56	0
13	6807117	57	-nan
13	6807117	58	-nan
13	6807117	59	-nan
13	6807117	60	0
13	6807117	61	-nan
13	6807117	62	-nan
13	6807117	63	-nan
13	6807117	64	-nan
13	6807117	65	-nan
13	6807117	66	-nan
13	6807117	67	-nan
13	6807117	68	-nan
13	6807117	69	0
13	6807117	70	-nan
13	6807117	71	-nan
13	6807117	72	-nan
13	6807117	73	-nan
13	6807117	74	-nan
13	6807117	75	-nan
13	6807117	76	-nan
vector 14  geant_network.node[14].content_store  hit_node[14]  ETV
14	6807117	1	1
14	6807117	2	1
14	6807117	3	1
14	6807117	4	1
14	6807117	5	1
14	6807117	6	1
14	6807117	7	1
14	6807117	8	1
14	6807117	9	1
14	6807117	10	0
14	6807117	11	0.13333333333333
14	6807117	12	1
14	6807117	13	1
14	6807117	14	1
14	6807117	15	1
14	6807117	16	0.88888888888889
14	6807117	17	1
14	6807117	18	0.8
14	6807117	19	0
14	6807117	20	0
14	6807117	21	1
14	6807117	22	0.76923076923077
14	6807117	23	0.6
14	6807117	24	1
14	6807117	25	0.54545454545455
14	6807117	26	0
14	6807117	27	0.18181818181818
14	6807117	28	0.9
14	6807117	29	0
14	6807117	30	0
14	6807117	31	0
14	6807117	32	0.22222222222222
14	6807117	33	0
14	6807117	34	0
14	6807117	35	0
14	6807117	36	0
14	6807117	37	0
14	6807117	38	1
14	6807117	39	0
14	6807117	40	0
14	6807117	41	0
14	6807117	42	0
14	6807117	43	0
14	6807117	44	0
14	6807117	45	0.5
14	6807117	46	0.85714285714286
14	6807117	47	0
14	6807117	48	0
14	6807117	49	0
14	6807117	50	0.83333333333333
14	6807117	51	1
14	6807117	52	0.75
14	6807117	53	0
14	6807117	54	0
14	6807117	55	0
14	6807117	56	0.7
14	6807117	57	0.85714285714286
14	6807117	58	0
14	6807117	59	0
14	6807117	60	0
14	6807117	61	0
14	6807117	62	0
14	6807117	63	0
14	6807117	64	0
14	6807117	65	0.44444444444444
14	6807117	66	0
14	6807117	67	0
14	6807117	68	0.8
14	6807117	69	1
14	6807117	70	1
14	6807117	71	0
14	6807117	72	0
14	6807117	73	0
14	6807117	74	1
14	6807117	75	0
14	6807117	76	0
vector 15  geant_network.node[15].content_store  hit_node[15]  ETV
15	6807117	1	-nan
15	6807117	2	-nan
15	6807117	3	-nan
15	6807117	4	-nan
15	6807117	5	-nan
15	6807117	6	-nan
15	6807117	7	-nan
15	6807117	8	-nan
15	6807117	9	-nan
15	6807117	10	-nan
15	6807117	11	-nan
15	6807117	12	-nan
15	6807117	13	-nan
15	6807117	14	1
15	6807117	15	-nan
15	6807117	16	-nan
15	6807117	17	-nan
15	6807117	18	0.2
15	6807117	19	-nan
15	6807117	20	-nan
15	6807117	21	-nan
15	6807117	22	-nan
15	6807117	23	-nan
15	6807117	24	-nan
15	6807117	25	-nan
15	6807117	26	0
15	6807117	27	1
15	6807117	28	-nan
15	6807117	29	0.9
15	6807117	30	-nan
15	6807117	31	-nan
15	6807117	32	1
15	6807117	33	-nan
15	6807117	34	-nan
15	6807117	35	-nan
15	6807117	36	0
15	6807117	37	-nan
15	6807117	38	-nan
15	6807117	39	0
15	6807117	40	-nan
15	6807117	41	1
15	6807117	42	-nan
15	6807117	43	-nan
15	6807117	44	0.5
15	6807117	45	-nan
15	6807117	46	0
15	6807117	47	1
15	6807117	48	-nan
15	6807117	49	0
15	6807117	50	1
15	6807117	51	0.5
15	6807117	52	-nan
15	6807117	53	-nan
15	6807117	54	0.625
15	6807117	55	-nan
15	6807117	56	0.5
15	6807117	57	0
15	6807117	58	-nan
15	6807117	59	-nan
15	6807117	60	-nan
15	6807117	61	0
15	6807117	62	-nan
15	6807117	63	0
15	6807117	64	-nan
15	6807117	65	-nan
15	6807117	66	0
15	6807117	67	-nan
15	6807117	68	0.9
15	6807117	69	0
15	6807117	70	0
15	6807117	71	0.5
15	6807117	72	-nan
15	6807117	73	-nan
15	6807117	74	0
15	6807117	75	-nan
15	6807117	76	-nan
vector 16  geant_network.node[16].content_store  hit_node[16]  ETV
16	6807117	1	-nan
16	6807117	2	-nan
16	6807117	3	-nan
16	6807117	4	-nan
16	6807117	5	-nan
16	6807117	6	-nan
16	6807117	7	-nan
16	6807117	8	-nan
16	6807117	9	-nan
16	6807117	10	-nan
16	6807117	11	-nan
16	6807117	12	-nan
16	6807117	13	-nan
16	6807117	14	-nan
16	6807117	15	-nan
16	6807117	16	-nan
16	6807117	17	-nan
16	6807117	18	-nan
16	6807117	19	-nan
16	6807117	20	-nan
16	6807117	21	-nan
16	6807117	22	-nan
16	6807117	23	-nan
16	6807117	24	-nan
16	6807117	25	-nan
16	6807117	26	-nan
16	6807117	27	-nan
16	6807117	28	-nan
16	6807117	29	-nan
16	6807117	30	-nan
16	6807117	31	-nan
16	6807117	32	-nan
16	6807117	33	-nan
16	6807117	34	-nan
16	6807117	35	-nan
16	6807117	36	-nan
16	6807117	37	-nan
16	6807117	38	-nan
16	6807117	39	-nan
16	6807117	40	-nan
16	6807117	41	-nan
16	6807117	42	-nan
16	6807117	43	-nan
16	6807117	44	-nan
16	6807117	45	-nan
16	6807117	46	-nan
16	6807117	47	-nan
16	6807117	48	-nan
16	6807117	49	-nan
16	6807117	50	-nan
16	6807117	51	-nan
16	6807117	52	-nan
16	6807117	53	-nan
16	6807117	54	-nan
16	6807117	55	-nan
16	6807117	56	-nan
16	6807117	57	-nan
16	6807117	58	-nan
16	6807117	59	-nan
16	6807117	60	-nan
16	6807117	61	-nan
16	6807117	62	-nan
16	6807117	63	-nan
16	6807117	64	0
16	6807117	65	-nan
16	6807117	66	-nan
16	6807117	67	-nan
16	6807117	68	-nan
16	6807117	69	-nan
16	6807117	70	-nan
16	6807117	71	-nan
16	6807117	72	-nan
16	6807117	73	-nan
16	6807117	74	-nan
16	6807117	75	-nan
16	6807117	76	-nan
vector 17  geant_network.node[17].content_store  hit_node[17]  ETV
17	6807117	1	1
17	6807117	2	1
17	6807117	3	1
17	6807117	4	1
17	6807117	5	1
17	6807117	6	1
17	6807117	7	1
17	6807117	8	1
17	6807117	9	1
17	6807117	10	1
17	6807117	11	1
17	6807117	12	0.78571428571429
17	6807117	13	1
17	6807117	14	1
17	6807117	15	0.25
17	6807117	16	1
17	6807117	17	1
17	6807117	18	0.6
17	6807117	19	1
17	6807117	20	0.18181818181818
17	6807117	21	0.57142857142857
17	6807117	22	1
17	6807117	23	0.6
17	6807117	24	1
17	6807117	25	0
17	6807117	26	1
17	6807117	27	1
17	6807117	28	0.8
17	6807117	29	1
17	6807117	30	1
17	6807117	31	1
17	6807117	32	1
17	6807117	33	0
17	6807117	34	1
17	6807117	35	1
17	6807117	36	0.14285714285714
17	6807117	37	0
17	6807117	38	1
17	6807117	39	0
17	6807117	40	0.63636363636364
17	6807117	41	1
17	6807117	42	0
17	6807117	43	1
17	6807117	44	0
17	6807117	45	0.75
17	6807117	46	0
17	6807117	47	0.8
17	6807117	48	0
17	6807117	49	1
17	6807117	50	0
17	6807117	51	0.25
17	6807117	52	1
17	6807117	53	0
17	6807117	54	1
17	6807117	55	-nan
17	6807117	56	0.9
17	6807117	57	0
17	6807117	58	0
17	6807117	59	1
17	6807117	60	0
17	6807117	61	0.375
17	6807117	62	0
17	6807117	63	0.71428571428571
17	6807117	64	0
17	6807117	65	0
17	6807117	66	0.57142857142857
17	6807117	67	0.25
17	6807117	68	0
17	6807117	69	0
17	6807117	70	0
17	6807117	71	1
17	6807117	72	-nan
17	6807117	73	0
17	6807117	74	0
17	6807117	75	0
17	6807117	76	0
vector 18  geant_network.node[18].content_store  hit_node[18]  ETV
18	6807117	1	1
18	6807117	2	1
18	6807117	3	1
18	6807117	4	1
18	6807117	5	1
18	6807117	6	1
18	6807117	7	1
18	6807117	8	1
18	6807117	9	0.875
18	6807117	10	1
18	6807117	11	1
18	6807117	12	1
18	6807117	13	1
18	6807117	14	0.66666666666667
18	6807117	15	1
18	6807117	16	0.6
18	6807117	17	1
18	6807117	18	0.58333333333333
18	6807117	19	1
18	6807117	20	1
18	6807117	21	1
18	6807117	22	1
18	6807117	23	1
18	6807117	24	0.63636363636364
18	6807117	25	0.44444444444444
18	6807117	26	0.91304347826087
18	6807117	27	0.77777777777778
18	6807117	28	1
18	6807117	29	0
18	6807117	30	0
18	6807117	31	0
18	6807117	32	1
18	6807117	33	1
18	6807117	34	0
18	6807117	35	1
18	6807117	36	0.875
18	6807117	37	0.75
18	6807117	38	0.2
18	6807117	39	0.125
18	6807117	40	0
18	6807117	41	0.125
18	6807117	42	0.72727272727273
18	6807117	43	0
18	6807117	44	1
18	6807117	45	1
18	6807117	46	0
18	6807117	47	0
18	6807117	48	0
18	6807117	49	0.85714285714286
18	6807117	50	0
18	6807117	51	0
18	6807117	52	1
18	6807117	53	1
18	6807117	54	1
18	6807117	55	0.90909090909091
18	6807117	56	1
18	6807117	57	0.55555555555556
18	6807117	58	0.88888888888889
18	6807117	59	0.33333333333333
18	6807117	60	1
18	6807117	61	1
18	6807117	62	0
18	6807117	63	0
18	6807117	64	1
18	6807117	65	0.57142857142857
18	6807117	66	0
18	6807117	67	1
18	6807117	68	0
18	6807117	69	0
18	6807117	70	0
18	6807117	71	0
18	6807117	72	0
18	6807117	73	0.375
18	6807117	74	0.44444444444444
18	6807117	75	1
18	6807117	76	0
vector 19  geant_network.node[19].content_store  hit_node[19]  ETV
19	6807117	1	-nan
19	6807117	2	-nan
19	6807117	3	-nan
19	6807117	4	-nan
19	6807117	5	-nan
19	6807117	6	-nan
19	6807117	7	-nan
19	6807117	8	-nan
19	6807117	9	-nan
19	6807117	10	-nan
19	6807117	11	-nan
19	6807117	12	-nan
19	6807117	13	-nan
19	6807117	14	-nan
19	6807117	15	-nan
19	6807117	16	-nan
19	6807117	17	-nan
19	6807117	18	-nan
19	6807117	19	-nan
19	6807117	20	-nan
19	6807117	21	-nan
19	6807117	22	-nan
19	6807117	23	-nan
19	6807117	24	-nan
19	6807117	25	-nan
19	6807117	26	-nan
19	6807117	27	-nan
19	6807117	28	-nan
19	6807117	29	-nan
19	6807117	30	-nan
19	6807117	31	-nan
19	6807117	32	-nan
19	6807117	33	-nan
19	6807117	34	-nan
19	6807117	35	-nan
19	6807117	36	-nan
19	6807117	37	-nan
19	6807117	38	-nan
19	6807117	39	-nan
19	6807117	40	-nan
19	6807117	41	-nan
19	6807117	42	-nan
19	6807117	43	-nan
19	6807117	44	-nan
19	6807117	45	-nan
19	6807117	46	-nan
19	6807117	47	-nan
19	6807117	48	-nan
19	6807117	49	-nan
19	6807117	50	-nan
19	6807117	51	-nan
19	6807117	52	-nan
19	6807117	53	-nan
19	6807117	54	-nan
19	6807117	55	-nan
19	6807117	56	-nan
19	6807117	57	-nan
19	6807117	58	-nan
19	6807117	59	-nan
19	6807117	60	-nan
19	6807117	61	-nan
19	6807117	62	-nan
19	6807117	63	-nan
19	6807117	64	-nan
19	6807117	65	-nan
19	6807117	66	-nan
19	6807117	67	-nan
19	6807117	68	-nan
19	6807117	69	-nan
19	6807117	70	-nan
19	6807117	71	-nan
19	6807117	72	-nan
19	6807117	73	-nan
19	6807117	74	-nan
19	6807117	75	-nan
19	6807117	76	-nan
vector 20  geant_network.node[20].content_store  hit_node[20]  ETV
20	6807117	1	1
20	6807117	2	1
20	6807117	3	1
20	6807117	4	1
20	6807117	5	1
20	6807117	6	1
20	6807117	7	1
20	6807117	8	1
20	6807117	9	1
20	6807117	10	1
20	6807117	11	1
20	6807117	12	1
20	6807117	13	1
20	6807117	14	1
20	6807117	15	1
20	6807117	16	1
20	6807117	17	0.066666666666667
20	6807117	18	1
20	6807117	19	1
20	6807117	20	1
20	6807117	21	1
20	6807117	22	1
20	6807117	23	0.14285714285714
20	6807117	24	1
20	6807117	25	1
20	6807117	26	0.8
20	6807117	27	1
20	6807117	28	0.6
20	6807117	29	1
20	6807117	30	1
20	6807117	31	0
20	6807117	32	0.14285714285714
20	6807117	33	0
20	6807117	34	0
20	6807117	35	0.28571428571429
20	6807117	36	1
20	6807117	37	1
20	6807117	38	0
20	6807117	39	1
20	6807117	40	0
20	6807117	41	0
20	6807117	42	1
20	6807117	43	1
20	6807117	44	0
20	6807117	45	1
20	6807117	46	0
20	6807117	47	1
20	6807117	48	0.16666666666667