version 2
run General-19-20150311-18:59:42-28974
attr D fix0.1
attr F spr
attr R lru
attr a 0.9
attr configname General
attr datetime 20150311-18:59:42
attr experiment General
attr inifile omnetpp.ini
attr iterationvars "$net=abilene, $rep=0, $a=0.9, $F=spr, $ttl=1000, $D=fix0.1, $R=lru"
attr iterationvars2 "$net=abilene, $rep=0, $a=0.9, $F=spr, $ttl=1000, $D=fix0.1, $R=lru, $repetition=0"
attr measurement "$net=abilene, $rep=0, $a=0.9, $F=spr, $ttl=1000, $D=fix0.1, $R=lru"
attr net abilene
attr network networks.${net=abilene}_network
attr processid 28974
attr rep 0
attr repetition 0
attr replication #0
attr resultdir results
attr runnumber 19
attr seedset 0
attr ttl 1000

vector 0  abilene_network.node[0].content_store  hit_node[0]  ETV
0	587377	1	1
0	587377	2	1
0	587377	3	1
0	587377	4	1
0	587377	5	0.86206896551724
0	587377	6	0.9047619047619
0	587377	7	1
0	587377	8	0.55555555555556
0	587377	9	1
0	587377	10	1
0	587377	11	0.6
0	587377	12	1
0	587377	13	0.33333333333333
0	587377	14	1
0	587377	15	1
0	587377	16	0
0	587377	17	0
0	587377	18	0
0	587377	19	0.41666666666667
0	587377	20	0.875
0	587377	21	0
0	587377	22	0.84615384615385
0	587377	23	1
0	587377	24	0
0	587377	25	0.4
0	587377	26	1
0	587377	27	0
0	587377	28	1
0	587377	29	0
0	587377	30	0
0	587377	31	0
0	587377	32	1
0	587377	33	0
0	587377	34	1
0	587377	35	0
0	587377	36	0
0	587377	37	0
0	587377	38	1
0	587377	39	0
0	587377	40	0.8
0	587377	41	0
0	587377	42	0
0	587377	43	0.71428571428571
0	587377	44	0
0	587377	45	0
0	587377	46	0
0	587377	47	0.5
0	587377	48	0
0	587377	49	0.33333333333333
0	587377	50	0.25
0	587377	51	0
0	587377	52	0
0	587377	53	0
0	587377	54	0
0	587377	55	0
0	587377	56	0.66666666666667
0	587377	57	0
0	587377	58	0
0	587377	59	0
0	587377	60	0
0	587377	61	0
0	587377	62	0
0	587377	63	0
0	587377	64	0
0	587377	65	0
0	587377	66	0
0	587377	67	0
0	587377	68	0
0	587377	69	0
0	587377	70	0
0	587377	71	0
0	587377	72	0
0	587377	73	0
0	587377	74	1
0	587377	75	0
0	587377	76	0
0	587377	77	0
0	587377	78	0
0	587377	79	-nan
0	587377	80	0
0	587377	81	0
0	587377	82	-nan
0	587377	83	-nan
0	587377	84	0
0	587377	85	0
0	587377	86	0
0	587377	87	0
0	587377	88	0
0	587377	89	0
0	587377	90	0
0	587377	91	0
0	587377	92	0
0	587377	93	0
0	587377	94	-nan
0	587377	95	0
0	587377	96	1
0	587377	97	0
0	587377	98	0
0	587377	99	0.66666666666667
0	587377	100	0
0	587377	101	0
0	587377	102	-nan
0	587377	103	0
0	587377	104	-nan
0	587377	105	0
0	587377	106	0
0	587377	107	0
0	587377	108	0
0	587377	109	0.83333333333333
0	587377	110	0
0	587377	111	0
0	587377	112	0
0	587377	113	0
0	587377	114	-nan
0	587377	115	0
0	587377	116	0
0	587377	117	0
0	587377	118	0
0	587377	119	0
0	587377	120	0
0	587377	121	-nan
0	587377	122	0
0	587377	123	0
0	587377	124	0
0	587377	125	0.5
0	587377	126	0
0	587377	127	0
0	587377	128	0
0	587377	129	-nan
0	587377	130	0
0	587377	131	0
0	587377	132	-nan
0	587377	133	0
0	587377	134	0
0	587377	135	0.33333333333333
0	587377	136	0
0	587377	137	-nan
0	587377	138	0
0	587377	139	0
0	587377	140	0
0	587377	141	0
0	587377	142	0
0	587377	143	1
0	587377	144	-nan
0	587377	145	0
0	587377	146	-nan
0	587377	147	-nan
0	587377	148	0
0	587377	149	0
0	587377	150	0
0	587377	151	0
0	587377	152	-nan
0	587377	153	-nan
0	587377	154	0
0	587377	155	0
0	587377	156	0
0	587377	157	0
0	587377	158	0
0	587377	159	-nan
0	587377	160	0.66666666666667
0	587377	161	0
0	587377	162	0
0	587377	163	0
0	587377	164	0
0	587377	165	0
0	587377	166	-nan
0	587377	167	0
0	587377	168	0
0	587377	169	0.5
0	587377	170	0
0	587377	171	0
0	587377	172	0
0	587377	173	-nan
0	587377	174	0
0	587377	175	0
0	587377	176	0
0	587377	177	0
0	587377	178	0
0	587377	179	-nan
0	587377	180	-nan
0	587377	181	0
0	587377	182	0
0	587377	183	0
0	587377	184	0
0	587377	185	0
0	587377	186	-nan
0	587377	187	0.6
0	587377	188	0
0	587377	189	-nan
0	587377	190	0
0	587377	191	-nan
0	587377	192	0
0	587377	193	0
0	587377	194	0
0	587377	195	0
0	587377	196	0
0	587377	197	0
0	587377	198	0
0	587377	199	-nan
0	587377	200	0
0	587377	201	0
0	587377	202	0
0	587377	203	0
0	587377	204	0
0	587377	205	0
0	587377	206	-nan
0	587377	207	0
0	587377	208	0
0	587377	209	0
0	587377	210	-nan
0	587377	211	0
0	587377	212	-nan
0	587377	213	0
0	587377	214	-nan
0	587377	215	-nan
0	587377	216	-nan
0	587377	217	-nan
0	587377	218	0
0	587377	219	0
0	587377	220	0
0	587377	221	0
0	587377	222	-nan
0	587377	223	0
0	587377	224	-nan
0	587377	225	0
0	587377	226	-nan
0	587377	227	-nan
0	587377	228	0
0	587377	229	0
0	587377	230	0
0	587377	231	-nan
0	587377	232	-nan
0	587377	233	-nan
0	587377	234	0.33333333333333
0	587377	235	0
0	587377	236	-nan
0	587377	237	-nan
0	587377	238	1
vector 1  abilene_network.node[1].content_store  hit_node[1]  ETV
1	587377	1	1
1	587377	2	1
1	587377	3	1
1	587377	4	1
1	587377	5	1
1	587377	6	1
1	587377	7	1
1	587377	8	1
1	587377	9	0.88
1	587377	10	0.63636363636364
1	587377	11	1
1	587377	12	0.3125
1	587377	13	0.35
1	587377	14	1
1	587377	15	0
1	587377	16	1
1	587377	17	0.33333333333333
1	587377	18	0.82352941176471
1	587377	19	0.75
1	587377	20	0.84210526315789
1	587377	21	0.52380952380952
1	587377	22	0.85714285714286
1	587377	23	0
1	587377	24	0.11764705882353
1	587377	25	0.6875
1	587377	26	0.5
1	587377	27	0.92307692307692
1	587377	28	0
1	587377	29	0.83333333333333
1	587377	30	0.38461538461538
1	587377	31	0.86666666666667
1	587377	32	0.33333333333333
1	587377	33	0.85714285714286
1	587377	34	0
1	587377	35	0.63636363636364
1	587377	36	0.78571428571429
1	587377	37	0
1	587377	38	0.57142857142857
1	587377	39	0
1	587377	40	0.76923076923077
1	587377	41	0
1	587377	42	0
1	587377	43	0.5
1	587377	44	0
1	587377	45	0
1	587377	46	0
1	587377	47	0.33333333333333
1	587377	48	0.66666666666667
1	587377	49	0
1	587377	50	0.22222222222222
1	587377	51	0
1	587377	52	0.66666666666667
1	587377	53	0
1	587377	54	0.2
1	587377	55	0.2
1	587377	56	0.75
1	587377	57	0.25
1	587377	58	0.36363636363636
1	587377	59	0
1	587377	60	0.42857142857143
1	587377	61	0.88888888888889
1	587377	62	0.66666666666667
1	587377	63	0.75
1	587377	64	0
1	587377	65	0.5
1	587377	66	0.625
1	587377	67	0
1	587377	68	0.36363636363636
1	587377	69	0
1	587377	70	0.36363636363636
1	587377	71	0.75
1	587377	72	0
1	587377	73	0.11111111111111
1	587377	74	0.5
1	587377	75	0.090909090909091
1	587377	76	0
1	587377	77	0.85714285714286
1	587377	78	0.375
1	587377	79	0
1	587377	80	0.33333333333333
1	587377	81	0.85714285714286
1	587377	82	0.33333333333333
1	587377	83	0
1	587377	84	0
1	587377	85	0
1	587377	86	0
1	587377	87	0
1	587377	88	0.625
1	587377	89	0.66666666666667
1	587377	90	0.16666666666667
1	587377	91	0
1	587377	92	0
1	587377	93	0.42857142857143
1	587377	94	0.33333333333333
1	587377	95	0.5
1	587377	96	0.22222222222222
1	587377	97	0.14285714285714
1	587377	98	0
1	587377	99	0.5
1	587377	100	0.16666666666667
1	587377	101	0
1	587377	102	0
1	587377	103	0
1	587377	104	0.33333333333333
1	587377	105	0
1	587377	106	0
1	587377	107	0
1	587377	108	0
1	587377	109	0
1	587377	110	0
1	587377	111	0
1	587377	112	0
1	587377	113	0
1	587377	114	0
1	587377	115	0
1	587377	116	0
1	587377	117	0
1	587377	118	0
1	587377	119	0
1	587377	120	0
1	587377	121	0
1	587377	122	0
1	587377	123	0
1	587377	124	0.5
1	587377	125	0.2
1	587377	126	0
1	587377	127	0.25
1	587377	128	0
1	587377	129	0
1	587377	130	0
1	587377	131	0
1	587377	132	0
1	587377	133	0
1	587377	134	0
1	587377	135	0.33333333333333
1	587377	136	0
1	587377	137	0.66666666666667
1	587377	138	0
1	587377	139	0
1	587377	140	0
1	587377	141	0
1	587377	142	0.5
1	587377	143	0
1	587377	144	0.5
1	587377	145	0
1	587377	146	0
1	587377	147	0
1	587377	148	0
1	587377	149	0
1	587377	150	0
1	587377	151	0.2
1	587377	152	0
1	587377	153	0
1	587377	154	0
1	587377	155	0.5
1	587377	156	0
1	587377	157	0
1	587377	158	0
1	587377	159	0
1	587377	160	0
1	587377	161	0
1	587377	162	0
1	587377	163	0
1	587377	164	0
1	587377	165	0
1	587377	166	0
1	587377	167	0
1	587377	168	0
1	587377	169	0.16666666666667
1	587377	170	0
1	587377	171	0
1	587377	172	0
1	587377	173	-nan
1	587377	174	0
1	587377	175	0
1	587377	176	0
1	587377	177	0
1	587377	178	0
1	587377	179	0.33333333333333
1	587377	180	0
1	587377	181	0
1	587377	182	0
1	587377	183	0
1	587377	184	0.5
1	587377	185	0
1	587377	186	0
1	587377	187	0
1	587377	188	0
1	587377	189	0
1	587377	190	0
1	587377	191	0
1	587377	192	0
1	587377	193	0
1	587377	194	0
1	587377	195	0
1	587377	196	0
1	587377	197	0
1	587377	198	0
1	587377	199	-nan
1	587377	200	0
1	587377	201	0.25
1	587377	202	0
1	587377	203	0
1	587377	204	0.25
1	587377	205	0.33333333333333
1	587377	206	0
1	587377	207	0
1	587377	208	0.25
1	587377	209	0
1	587377	210	-nan
1	587377	211	0
1	587377	212	0
1	587377	213	0
1	587377	214	-nan
1	587377	215	0
1	587377	216	0
1	587377	217	-nan
1	587377	218	0
1	587377	219	0
1	587377	220	0
1	587377	221	0.33333333333333
1	587377	222	0
1	587377	223	0.2
1	587377	224	0
1	587377	225	0
1	587377	226	0
1	587377	227	-nan
1	587377	228	0
1	587377	229	0
1	587377	230	0
1	587377	231	0
1	587377	232	0
1	587377	233	0
1	587377	234	0
1	587377	235	0
1	587377	236	0
1	587377	237	0
1	587377	238	0
vector 2  abilene_network.node[2].content_store  hit_node[2]  ETV
2	587377	1	1
2	587377	2	1
2	587377	3	1
2	587377	4	1
2	587377	5	0.68181818181818
2	587377	6	1
2	587377	7	1
2	587377	8	0.4
2	587377	9	0.58333333333333
2	587377	10	0.85
2	587377	11	0.30769230769231
2	587377	12	1
2	587377	13	0.375
2	587377	14	0.5
2	587377	15	0.16666666666667
2	587377	16	0.7
2	587377	17	0.14285714285714
2	587377	18	0
2	587377	19	0.61538461538462
2	587377	20	0.76923076923077
2	587377	21	0.77777777777778
2	587377	22	0
2	587377	23	0
2	587377	24	0.61111111111111
2	587377	25	0
2	587377	26	0.5
2	587377	27	0.5
2	587377	28	0.23076923076923
2	587377	29	0
2	587377	30	0.76923076923077
2	587377	31	0.16666666666667
2	587377	32	0
2	587377	33	0
2	587377	34	0.78571428571429
2	587377	35	0.22222222222222
2	587377	36	0.85714285714286
2	587377	37	0.7
2	587377	38	0.28571428571429
2	587377	39	0.27272727272727
2	587377	40	0.22222222222222
2	587377	41	0.18181818181818
2	587377	42	0.11764705882353
2	587377	43	0
2	587377	44	0.16666666666667
2	587377	45	0
2	587377	46	0.33333333333333
2	587377	47	0
2	587377	48	0.11111111111111
2	587377	49	0
2	587377	50	0.2
2	587377	51	0.58333333333333
2	587377	52	0.28571428571429
2	587377	53	0.090909090909091
2	587377	54	0
2	587377	55	0
2	587377	56	0
2	587377	57	0
2	587377	58	0.22222222222222
2	587377	59	0
2	587377	60	0
2	587377	61	0
2	587377	62	0
2	587377	63	0
2	587377	64	0
2	587377	65	0
2	587377	66	0
2	587377	67	0.25
2	587377	68	0.5
2	587377	69	0.28571428571429
2	587377	70	0.33333333333333
2	587377	71	0.28571428571429
2	587377	72	0
2	587377	73	0.23076923076923
2	587377	74	0
2	587377	75	0.25
2	587377	76	0.63636363636364
2	587377	77	0
2	587377	78	0.125
2	587377	79	0
2	587377	80	0
2	587377	81	0
2	587377	82	0.2
2	587377	83	0.6
2	587377	84	0
2	587377	85	0.81818181818182
2	587377	86	0.44444444444444
2	587377	87	0.28571428571429
2	587377	88	0
2	587377	89	0
2	587377	90	0
2	587377	91	0.16666666666667
2	587377	92	0
2	587377	93	0.57142857142857
2	587377	94	0
2	587377	95	0
2	587377	96	0
2	587377	97	0
2	587377	98	0
2	587377	99	0
2	587377	100	0.4
2	587377	101	0
2	587377	102	0
2	587377	103	0
2	587377	104	0
2	587377	105	0.5
2	587377	106	0
2	587377	107	0
2	587377	108	0.5
2	587377	109	0.375
2	587377	110	0
2	587377	111	0
2	587377	112	0.25
2	587377	113	0
2	587377	114	0.33333333333333
2	587377	115	0
2	587377	116	0.33333333333333
2	587377	117	0.6
2	587377	118	0
2	587377	119	0.16666666666667
2	587377	120	0
2	587377	121	0
2	587377	122	0
2	587377	123	0
2	587377	124	0.2
2	587377	125	0
2	587377	126	0
2	587377	127	0.4
2	587377	128	0
2	587377	129	0
2	587377	130	0
2	587377	131	0.625
2	587377	132	0
2	587377	133	0.33333333333333
2	587377	134	0.28571428571429
2	587377	135	0
2	587377	136	0
2	587377	137	0
2	587377	138	0
2	587377	139	0
2	587377	140	0
2	587377	141	0
2	587377	142	0
2	587377	143	0
2	587377	144	0.33333333333333
2	587377	145	0
2	587377	146	0
2	587377	147	0
2	587377	148	0
2	587377	149	0
2	587377	150	0.16666666666667
2	587377	151	0
2	587377	152	0
2	587377	153	0
2	587377	154	0
2	587377	155	0
2	587377	156	0
2	587377	157	0
2	587377	158	0
2	587377	159	0
2	587377	160	0.14285714285714
2	587377	161	0
2	587377	162	0
2	587377	163	0
2	587377	164	0
2	587377	165	0
2	587377	166	0.375
2	587377	167	0
2	587377	168	0
2	587377	169	0
2	587377	170	0
2	587377	171	0
2	587377	172	0
2	587377	173	-nan
2	587377	174	0
2	587377	175	0
2	587377	176	0
2	587377	177	0.16666666666667
2	587377	178	0
2	587377	179	0
2	587377	180	0
2	587377	181	0
2	587377	182	0
2	587377	183	0
2	587377	184	0
2	587377	185	0
2	587377	186	0
2	587377	187	0
2	587377	188	0
2	587377	189	0
2	587377	190	0
2	587377	191	0
2	587377	192	0
2	587377	193	0
2	587377	194	0.25
2	587377	195	0
2	587377	196	0
2	587377	197	0
2	587377	198	0.66666666666667
2	587377	199	0
2	587377	200	0
2	587377	201	0
2	587377	202	0
2	587377	203	0.33333333333333
2	587377	204	0
2	587377	205	0
2	587377	206	0
2	587377	207	0
2	587377	208	0
2	587377	209	0
2	587377	210	0
2	587377	211	0
2	587377	212	0.25
2	587377	213	0.5
2	587377	214	0
2	587377	215	0
2	587377	216	0
2	587377	217	0
2	587377	218	0
2	587377	219	0
2	587377	220	0
2	587377	221	0
2	587377	222	0
2	587377	223	0.2
2	587377	224	0
2	587377	225	0
2	587377	226	0
2	587377	227	0
2	587377	228	0.42857142857143
2	587377	229	0.57142857142857
2	587377	230	0
2	587377	231	0
2	587377	232	0
2	587377	233	0
2	587377	234	0
2	587377	235	0
2	587377	236	0
2	587377	237	0
2	587377	238	0
vector 3  abilene_network.node[3].content_store  hit_node[3]  ETV
3	587377	1	1
3	587377	2	1
3	587377	3	1
3	587377	4	1
3	587377	5	0.68965517241379
3	587377	6	0.21428571428571
3	587377	7	0.4375
3	587377	8	0.73076923076923
3	587377	9	0.82608695652174
3	587377	10	0.2
3	587377	11	0.72222222222222
3	587377	12	0.78947368421053
3	587377	13	0.875
3	587377	14	0.73684210526316
3	587377	15	0.28571428571429
3	587377	16	0.5
3	587377	17	0.94736842105263
3	587377	18	0.5
3	587377	19	0.66666666666667
3	587377	20	0
3	587377	21	0.375
3	587377	22	0.1
3	587377	23	0.88461538461538
3	587377	24	0
3	587377	25	0
3	587377	26	0
3	587377	27	0.4
3	587377	28	0.76923076923077
3	587377	29	0
3	587377	30	0
3	587377	31	0
3	587377	32	0.21428571428571
3	587377	33	0.625
3	587377	34	0.7
3	587377	35	0.54545454545455
3	587377	36	0
3	587377	37	0.33333333333333
3	587377	38	0
3	587377	39	0
3	587377	40	0.33333333333333
3	587377	41	0.46153846153846
3	587377	42	0.26315789473684
3	587377	43	0.66666666666667
3	587377	44	0
3	587377	45	0.21428571428571
3	587377	46	0
3	587377	47	0
3	587377	48	0.25
3	587377	49	0
3	587377	50	0
3	587377	51	0
3	587377	52	0
3	587377	53	0.076923076923077
3	587377	54	0.625
3	587377	55	0.4
3	587377	56	0.11111111111111
3	587377	57	0.84615384615385
3	587377	58	0
3	587377	59	0.5
3	587377	60	0
3	587377	61	0.33333333333333
3	587377	62	0
3	587377	63	0
3	587377	64	0.63636363636364
3	587377	65	0
3	587377	66	0
3	587377	67	0.71428571428571
3	587377	68	0.25
3	587377	69	0
3	587377	70	0
3	587377	71	0.5
3	587377	72	0
3	587377	73	0.090909090909091
3	587377	74	0
3	587377	75	0
3	587377	76	0
3	587377	77	0
3	587377	78	0
3	587377	79	0
3	587377	80	0
3	587377	81	0
3	587377	82	0.2
3	587377	83	0
3	587377	84	0.28571428571429
3	587377	85	0.33333333333333
3	587377	86	0
3	587377	87	0
3	587377	88	0.2
3	587377	89	0
3	587377	90	0
3	587377	91	0
3	587377	92	0
3	587377	93	0
3	587377	94	0
3	587377	95	0
3	587377	96	0.14285714285714
3	587377	97	0.375
3	587377	98	0
3	587377	99	0
3	587377	100	0.090909090909091
3	587377	101	0
3	587377	102	0
3	587377	103	0.083333333333333
3	587377	104	0
3	587377	105	0
3	587377	106	0
3	587377	107	0
3	587377	108	0.4
3	587377	109	0.28571428571429
3	587377	110	0
3	587377	111	0
3	587377	112	0
3	587377	113	0.125
3	587377	114	0
3	587377	115	0
3	587377	116	0
3	587377	117	0.5
3	587377	118	0
3	587377	119	0
3	587377	120	0
3	587377	121	0
3	587377	122	0.5
3	587377	123	0
3	587377	124	0
3	587377	125	0.5
3	587377	126	0
3	587377	127	0
3	587377	128	0.2
3	587377	129	0
3	587377	130	0
3	587377	131	0
3	587377	132	0.16666666666667
3	587377	133	0
3	587377	134	0.11111111111111
3	587377	135	0.2
3	587377	136	0
3	587377	137	0
3	587377	138	0.16666666666667
3	587377	139	0
3	587377	140	0
3	587377	141	0.42857142857143
3	587377	142	0
3	587377	143	0
3	587377	144	0
3	587377	145	0
3	587377	146	0
3	587377	147	0
3	587377	148	0
3	587377	149	0.42857142857143
3	587377	150	0
3	587377	151	0
3	587377	152	0
3	587377	153	0
3	587377	154	0.16666666666667
3	587377	155	0
3	587377	156	0
3	587377	157	0.33333333333333
3	587377	158	0.16666666666667
3	587377	159	0
3	587377	160	0
3	587377	161	0
3	587377	162	0.33333333333333
3	587377	163	0
3	587377	164	0
3	587377	165	0.33333333333333
3	587377	166	0
3	587377	167	0
3	587377	168	0.16666666666667
3	587377	169	0
3	587377	170	0
3	587377	171	0
3	587377	172	0
3	587377	173	0
3	587377	174	0
3	587377	175	0.2
3	587377	176	0.2
3	587377	177	0
3	587377	178	0
3	587377	179	0
3	587377	180	0
3	587377	181	0
3	587377	182	0.75
3	587377	183	0
3	587377	184	0
3	587377	185	0
3	587377	186	0
3	587377	187	0.25
3	587377	188	0
3	587377	189	0
3	587377	190	0
3	587377	191	0
3	587377	192	0.4
3	587377	193	0.6
3	587377	194	0
3	587377	195	0
3	587377	196	0
3	587377	197	0.2
3	587377	198	0
3	587377	199	0
3	587377	200	0
3	587377	201	0
3	587377	202	0
3	587377	203	0
3	587377	204	0.2
3	587377	205	0
3	587377	206	0
3	587377	207	0
3	587377	208	0.4
3	587377	209	0
3	587377	210	0
3	587377	211	0
3	587377	212	0
3	587377	213	0
3	587377	214	0
3	587377	215	0
3	587377	216	0
3	587377	217	0
3	587377	218	0
3	587377	219	0
3	587377	220	0
3	587377	221	0
3	587377	222	0
3	587377	223	0
3	587377	224	0
3	587377	225	0
3	587377	226	0
3	587377	227	0
3	587377	228	0
3	587377	229	0
3	587377	230	0
3	587377	231	0.16666666666667
3	587377	232	0
3	587377	233	0
3	587377	234	0
3	587377	235	0
3	587377	236	0
3	587377	237	0.16666666666667
3	587377	238	0
vector 4  abilene_network.node[4].content_store  hit_node[4]  ETV
4	587377	1	1
4	587377	2	0.9811320754717
4	587377	3	0.95555555555556
4	587377	4	0.90625
4	587377	5	0.78125
4	587377	6	1
4	587377	7	0.89655172413793
4	587377	8	0.55555555555556
4	587377	9	0.27272727272727
4	587377	10	0.32258064516129
4	587377	11	0
4	587377	12	0
4	587377	13	0.57894736842105
4	587377	14	0.13333333333333
4	587377	15	0.73913043478261
4	587377	16	0.36842105263158
4	587377	17	0
4	587377	18	0.41176470588235
4	587377	19	0.44444444444444
4	587377	20	0
4	587377	21	0.15789473684211
4	587377	22	0
4	587377	23	0.42857142857143
4	587377	24	0.76190476190476
4	587377	25	0.55555555555556
4	587377	26	0.33333333333333
4	587377	27	0
4	587377	28	0.45454545454545
4	587377	29	0.23529411764706
4	587377	30	0.21428571428571
4	587377	31	0.25
4	587377	32	0.29411764705882
4	587377	33	0.125
4	587377	34	0.1
4	587377	35	0
4	587377	36	0.14285714285714
4	587377	37	0.1
4	587377	38	0.1
4	587377	39	0.66666666666667
4	587377	40	0.25
4	587377	41	0.18181818181818
4	587377	42	0.88235294117647
4	587377	43	0.090909090909091
4	587377	44	0.52941176470588
4	587377	45	0.6
4	587377	46	0.33333333333333
4	587377	47	0.70588235294118
4	587377	48	0.4
4	587377	49	0
4	587377	50	0.29411764705882
4	587377	51	0.27272727272727
4	587377	52	0.33333333333333
4	587377	53	0.066666666666667
4	587377	54	0
4	587377	55	0.3
4	587377	56	0.5
4	587377	57	0.33333333333333
4	587377	58	0.25
4	587377	59	0.11111111111111
4	587377	60	0.26666666666667
4	587377	61	0.11111111111111
4	587377	62	0
4	587377	63	0
4	587377	64	0
4	587377	65	0.5
4	587377	66	0
4	587377	67	0
4	587377	68	0.18181818181818
4	587377	69	0.42857142857143
4	587377	70	0.3
4	587377	71	0
4	587377	72	0
4	587377	73	0
4	587377	74	0
4	587377	75	0
4	587377	76	0
4	587377	77	0.125
4	587377	78	0
4	587377	79	0
4	587377	80	0.41666666666667
4	587377	81	0.375
4	587377	82	0
4	587377	83	0
4	587377	84	0
4	587377	85	0
4	587377	86	0.6
4	587377	87	0.22222222222222
4	587377	88	0
4	587377	89	0.14285714285714
4	587377	90	0
4	587377	91	0.44444444444444
4	587377	92	0.5
4	587377	93	0
4	587377	94	0.090909090909091
4	587377	95	0
4	587377	96	0
4	587377	97	0
4	587377	98	0
4	587377	99	0
4	587377	100	0.2
4	587377	101	0
4	587377	102	0.125
4	587377	103	0
4	587377	104	0
4	587377	105	0
4	587377	106	0
4	587377	107	0
4	587377	108	0
4	587377	109	0
4	587377	110	0
4	587377	111	0.2
4	587377	112	0
4	587377	113	0.1
4	587377	114	0
4	587377	115	0.083333333333333
4	587377	116	0
4	587377	117	0
4	587377	118	0
4	587377	119	0.25
4	587377	120	0.18181818181818
4	587377	121	0
4	587377	122	0
4	587377	123	0
4	587377	124	0
4	587377	125	0
4	587377	126	0.5
4	587377	127	0
4	587377	128	0.18181818181818
4	587377	129	0
4	587377	130	0
4	587377	131	0
4	587377	132	0
4	587377	133	0
4	587377	134	0.25
4	587377	135	0
4	587377	136	0.1
4	587377	137	0
4	587377	138	0
4	587377	139	0.33333333333333
4	587377	140	0
4	587377	141	0
4	587377	142	0
4	587377	143	0
4	587377	144	0.11111111111111
4	587377	145	0
4	587377	146	0
4	587377	147	0
4	587377	148	0
4	587377	149	0
4	587377	150	0
4	587377	151	0.25
4	587377	152	0
4	587377	153	0.5
4	587377	154	0
4	587377	155	0
4	587377	156	0
4	587377	157	0
4	587377	158	0.42857142857143
4	587377	159	0
4	587377	160	0
4	587377	161	0
4	587377	162	0
4	587377	163	0.5
4	587377	164	0.2
4	587377	165	0.2
4	587377	166	0.16666666666667
4	587377	167	0.57142857142857
4	587377	168	0
4	587377	169	0.11111111111111
4	587377	170	0
4	587377	171	0.57142857142857
4	587377	172	0
4	587377	173	0
4	587377	174	0
4	587377	175	0
4	587377	176	0
4	587377	177	0
4	587377	178	0
4	587377	179	0
4	587377	180	0
4	587377	181	0.375
4	587377	182	0
4	587377	183	0.22222222222222
4	587377	184	0
4	587377	185	0
4	587377	186	0
4	587377	187	0
4	587377	188	0.28571428571429
4	587377	189	0
4	587377	190	0.42857142857143
4	587377	191	0
4	587377	192	0
4	587377	193	0
4	587377	194	0
4	587377	195	0
4	587377	196	0.14285714285714
4	587377	197	0.25
4	587377	198	0
4	587377	199	0
4	587377	200	0
4	587377	201	0.25
4	587377	202	0
4	587377	203	0
4	587377	204	0
4	587377	205	0
4	587377	206	0
4	587377	207	0
4	587377	208	0
4	587377	209	0
4	587377	210	0
4	587377	211	0
4	587377	212	0
4	587377	213	0
4	587377	214	0
4	587377	215	0.16666666666667
4	587377	216	0.16666666666667
4	587377	217	0
4	587377	218	0
4	587377	219	0.4
4	587377	220	0
4	587377	221	0.33333333333333
4	587377	222	0
4	587377	223	0
4	587377	224	0
4	587377	225	0
4	587377	226	0
4	587377	227	0
4	587377	228	0
4	587377	229	0
4	587377	230	0
4	587377	231	0
4	587377	232	0
4	587377	233	0.33333333333333
4	587377	234	0
4	587377	235	0.5
4	587377	236	0.16666666666667
4	587377	237	0
4	587377	238	0
vector 5  abilene_network.node[5].content_store  hit_node[5]  ETV
5	587377	1	1
5	587377	2	0.96666666666667
5	587377	3	0.38
5	587377	4	0.7
5	587377	5	0.81081081081081
5	587377	6	0.037037037037037
5	587377	7	0.60606060606061
5	587377	8	0.3448275862069
5	587377	9	0.275
5	587377	10	0.94642857142857
5	587377	11	0.72222222222222
5	587377	12	0.51851851851852
5	587377	13	0.32258064516129
5	587377	14	0.65
5	587377	15	0.29166666666667
5	587377	16	0.56666666666667
5	587377	17	0.34615384615385
5	587377	18	0.26923076923077
5	587377	19	0.090909090909091
5	587377	20	0.73333333333333
5	587377	21	0.5
5	587377	22	0.53571428571429
5	587377	23	0.14285714285714
5	587377	24	0.1304347826087
5	587377	25	0.19047619047619
5	587377	26	0.62068965517241
5	587377	27	0.47619047619048
5	587377	28	0
5	587377	29	0.071428571428571
5	587377	30	0.24
5	587377	31	0
5	587377	32	0.41935483870968
5	587377	33	0.55
5	587377	34	0.26086956521739
5	587377	35	0
5	587377	36	0.05
5	587377	37	0
5	587377	38	0.23529411764706
5	587377	39	0.076923076923077
5	587377	40	0
5	587377	41	0.27272727272727
5	587377	42	0
5	587377	43	0.4375
5	587377	44	0.13333333333333
5	587377	45	0.11111111111111
5	587377	46	0.043478260869565
5	587377	47	0.28571428571429
5	587377	48	0
5	587377	49	0.27272727272727
5	587377	50	0.14814814814815
5	587377	51	0
5	587377	52	0.14285714285714
5	587377	53	0
5	587377	54	0.1
5	587377	55	0.11111111111111
5	587377	56	0
5	587377	57	0
5	587377	58	0.05
5	587377	59	0
5	587377	60	0.23529411764706
5	587377	61	0.11111111111111
5	587377	62	0.04
5	587377	63	0.1
5	587377	64	0.2
5	587377	65	0.375
5	587377	66	0.69230769230769
5	587377	67	0.38095238095238
5	587377	68	0.15789473684211
5	587377	69	0.2
5	587377	70	0.45454545454545
5	587377	71	0.25
5	587377	72	0.11111111111111
5	587377	73	0
5	587377	74	0.0625
5	587377	75	0.47368421052632
5	587377	76	0
5	587377	77	0
5	587377	78	0.21428571428571
5	587377	79	0.076923076923077
5	587377	80	0
5	587377	81	0.076923076923077
5	587377	82	0.076923076923077
5	587377	83	0
5	587377	84	0
5	587377	85	0.16666666666667
5	587377	86	0
5	587377	87	0.058823529411765
5	587377	88	0.18181818181818
5	587377	89	0
5	587377	90	0.2
5	587377	91	0.15384615384615
5	587377	92	0.058823529411765
5	587377	93	0
5	587377	94	0
5	587377	95	0
5	587377	96	0.1875
5	587377	97	0.14285714285714
5	587377	98	0.08695652173913
5	587377	99	0.083333333333333
5	587377	100	0.066666666666667
5	587377	101	0
5	587377	102	0
5	587377	103	0.47619047619048
5	587377	104	0
5	587377	105	0
5	587377	106	0
5	587377	107	0
5	587377	108	0
5	587377	109	0
5	587377	110	0.066666666666667
5	587377	111	0.16666666666667
5	587377	112	0
5	587377	113	0.27272727272727
5	587377	114	0
5	587377	115	0.2
5	587377	116	0.066666666666667
5	587377	117	0
5	587377	118	0.21428571428571
5	587377	119	0.23529411764706
5	587377	120	0.071428571428571
5	587377	121	0.4
5	587377	122	0
5	587377	123	0.28571428571429
5	587377	124	0.26666666666667
5	587377	125	0.47619047619048
5	587377	126	0
5	587377	127	0
5	587377	128	0
5	587377	129	0
5	587377	130	0
5	587377	131	0
5	587377	132	0.13333333333333
5	587377	133	0
5	587377	134	0.54545454545455
5	587377	135	0
5	587377	136	0.47619047619048
5	587377	137	0
5	587377	138	0
5	587377	139	0.53846153846154
5	587377	140	0
5	587377	141	0.54545454545455
5	587377	142	0
5	587377	143	0
5	587377	144	0.1875
5	587377	145	0
5	587377	146	0.38461538461538
5	587377	147	0
5	587377	148	0
5	587377	149	0
5	587377	150	0.1
5	587377	151	0
5	587377	152	0
5	587377	153	0
5	587377	154	0
5	587377	155	0
5	587377	156	0
5	587377	157	0
5	587377	158	0
5	587377	159	0
5	587377	160	0
5	587377	161	0
5	587377	162	0.125
5	587377	163	0
5	587377	164	0.21428571428571
5	587377	165	0
5	587377	166	0
5	587377	167	0
5	587377	168	0
5	587377	169	0.36363636363636
5	587377	170	0
5	587377	171	0
5	587377	172	0.27272727272727
5	587377	173	0
5	587377	174	0.1
5	587377	175	0.11111111111111
5	587377	176	0.44444444444444
5	587377	177	0.63636363636364
5	587377	178	0
5	587377	179	0
5	587377	180	0
5	587377	181	0
5	587377	182	0
5	587377	183	0.13333333333333
5	587377	184	0
5	587377	185	0
5	587377	186	0.33333333333333
5	587377	187	0.26666666666667
5	587377	188	0.14285714285714
5	587377	189	0
5	587377	190	0.14285714285714
5	587377	191	0
5	587377	192	0.125
5	587377	193	0
5	587377	194	0.1
5	587377	195	0
5	587377	196	0.083333333333333
5	587377	197	0
5	587377	198	0
5	587377	199	0
5	587377	200	0
5	587377	201	0.16666666666667
5	587377	202	0.14285714285714
5	587377	203	0.15384615384615
5	587377	204	0.36363636363636
5	587377	205	0
5	587377	206	0
5	587377	207	0
5	587377	208	0
5	587377	209	0
5	587377	210	0
5	587377	211	0
5	587377	212	0.46153846153846
5	587377	213	0.090909090909091
5	587377	214	0
5	587377	215	0
5	587377	216	0
5	587377	217	0
5	587377	218	0
5	587377	219	0
5	587377	220	0
5	587377	221	0.16666666666667
5	587377	222	0
5	587377	223	0
5	587377	224	0.090909090909091
5	587377	225	0
5	587377	226	0
5	587377	227	0
5	587377	228	0
5	587377	229	0.076923076923077
5	587377	230	0
5	587377	231	0.11111111111111
5	587377	232	0
5	587377	233	0.22222222222222
5	587377	234	0.36363636363636
5	587377	235	0
5	587377	236	0
5	587377	237	0
5	587377	238	0
vector 6  abilene_network.node[6].content_store  hit_node[6]  ETV
6	587377	1	1
6	587377	2	1
6	587377	3	0.725
6	587377	4	1
6	587377	5	1
6	587377	6	1
6	587377	7	0.56521739130435
6	587377	8	1
6	587377	9	0
6	587377	10	0.20689655172414
6	587377	11	0.5
6	587377	12	0.84210526315789
6	587377	13	0.75
6	587377	14	0
6	587377	15	0.090909090909091
6	587377	16	0.16666666666667
6	587377	17	0.16666666666667
6	587377	18	0.4375
6	587377	19	0.5
6	587377	20	0.75
6	587377	21	0
6	587377	22	0
6	587377	23	0.8
6	587377	24	0
6	587377	25	0
6	587377	26	0.36842105263158
6	587377	27	0
6	587377	28	0.73333333333333
6	587377	29	0
6	587377	30	0.33333333333333
6	587377	31	0.3125
6	587377	32	0
6	587377	33	0.1
6	587377	34	0
6	587377	35	0
6	587377	36	0.1
6	587377	37	0
6	587377	38	0.6
6	587377	39	0.16666666666667
6	587377	40	0
6	587377	41	0.25
6	587377	42	0.375
6	587377	43	0
6	587377	44	0.25
6	587377	45	0
6	587377	46	0
6	587377	47	0
6	587377	48	0.66666666666667
6	587377	49	0
6	587377	50	0
6	587377	51	0.42857142857143
6	587377	52	0.14285714285714
6	587377	53	0
6	587377	54	0
6	587377	55	0
6	587377	56	0
6	587377	57	0.28571428571429
6	587377	58	0.30769230769231
6	587377	59	0
6	587377	60	0.28571428571429
6	587377	61	0
6	587377	62	0
6	587377	63	0
6	587377	64	0.16666666666667
6	587377	65	0
6	587377	66	0
6	587377	67	0.22222222222222
6	587377	68	0
6	587377	69	0
6	587377	70	0.55555555555556
6	587377	71	0.71428571428571
6	587377	72	0.16666666666667
6	587377	73	0.25
6	587377	74	0.28571428571429
6	587377	75	0.44444444444444
6	587377	76	0.625
6	587377	77	0
6	587377	78	0
6	587377	79	0
6	587377	80	0.2
6	587377	81	0
6	587377	82	0.25
6	587377	83	0
6	587377	84	0
6	587377	85	0
6	587377	86	0
6	587377	87	0
6	587377	88	0
6	587377	89	0.66666666666667
6	587377	90	0
6	587377	91	0.33333333333333
6	587377	92	0
6	587377	93	0
6	587377	94	0
6	587377	95	0
6	587377	96	0.16666666666667
6	587377	97	0
6	587377	98	0
6	587377	99	0
6	587377	100	0
6	587377	101	0
6	587377	102	0
6	587377	103	0.55555555555556
6	587377	104	0.33333333333333
6	587377	105	0
6	587377	106	0
6	587377	107	0.77777777777778
6	587377	108	0
6	587377	109	0.2
6	587377	110	0
6	587377	111	0.33333333333333
6	587377	112	0
6	587377	113	0
6	587377	114	0.78571428571429
6	587377	115	0
6	587377	116	0
6	587377	117	0.57142857142857
6	587377	118	0
6	587377	119	0
6	587377	120	0
6	587377	121	0.125
6	587377	122	0.25
6	587377	123	0
6	587377	124	0
6	587377	125	0
6	587377	126	0
6	587377	127	0.33333333333333
6	587377	128	0
6	587377	129	0
6	587377	130	0
6	587377	131	0
6	587377	132	0
6	587377	133	0
6	587377	134	0
6	587377	135	0
6	587377	136	0.27272727272727
6	587377	137	0
6	587377	138	0
6	587377	139	0
6	587377	140	0
6	587377	141	0
6	587377	142	0
6	587377	143	0
6	587377	144	0
6	587377	145	0
6	587377	146	0
6	587377	147	0
6	587377	148	0.83333333333333