version 2
run General-12-20150311-18:59:39-28967
attr D lce
attr F spr
attr R lru
attr a 0.8
attr configname General
attr datetime 20150311-18:59:39
attr experiment General
attr inifile omnetpp.ini
attr iterationvars "$net=abilene, $rep=0, $a=0.8, $F=spr, $ttl=1000, $D=lce, $R=lru"
attr iterationvars2 "$net=abilene, $rep=0, $a=0.8, $F=spr, $ttl=1000, $D=lce, $R=lru, $repetition=0"
attr measurement "$net=abilene, $rep=0, $a=0.8, $F=spr, $ttl=1000, $D=lce, $R=lru"
attr net abilene
attr network networks.${net=abilene}_network
attr processid 28967
attr rep 0
attr repetition 0
attr replication #0
attr resultdir results
attr runnumber 12
attr seedset 0
attr ttl 1000

vector 0  abilene_network.node[0].content_store  hit_node[0]  ETV
0	394765	1	0.96875
0	394765	2	0.87878787878788
0	394765	3	0.85294117647059
0	394765	4	0.73333333333333
0	394765	5	0.42857142857143
0	394765	6	0.57142857142857
0	394765	7	0.64285714285714
0	394765	8	0.73333333333333
0	394765	9	0.5
0	394765	10	0.3
0	394765	11	0.33333333333333
0	394765	12	0.53333333333333
0	394765	13	0.55555555555556
0	394765	14	0.4
0	394765	15	0.71428571428571
0	394765	16	0.375
0	394765	17	0
0	394765	18	0.25
0	394765	19	0.25
0	394765	20	0.28571428571429
0	394765	21	0.4
0	394765	22	0.14285714285714
0	394765	23	0
0	394765	24	0.2
0	394765	25	0
0	394765	26	0
0	394765	27	0.25
0	394765	28	-nan
0	394765	29	0.4
0	394765	30	0.14285714285714
0	394765	31	0.42857142857143
0	394765	32	0.2
0	394765	33	0.57142857142857
0	394765	34	0
0	394765	35	0
0	394765	36	0.2
0	394765	37	0.16666666666667
0	394765	38	0.4
0	394765	39	0.55555555555556
0	394765	40	0
0	394765	41	0
0	394765	42	0
0	394765	43	0
0	394765	44	0.25
0	394765	45	0
0	394765	46	0.2
0	394765	47	-nan
0	394765	48	-nan
0	394765	49	0
0	394765	50	0.25
0	394765	51	0
0	394765	52	0.5
0	394765	53	0
0	394765	54	0
0	394765	55	0
0	394765	56	0
0	394765	57	1
0	394765	58	0
0	394765	59	0.16666666666667
0	394765	60	0
0	394765	61	0.42857142857143
0	394765	62	0
0	394765	63	0
0	394765	64	0
0	394765	65	0
0	394765	66	0.2
0	394765	67	0
0	394765	68	0
0	394765	69	0
0	394765	70	0.28571428571429
0	394765	71	0
0	394765	72	0
0	394765	73	0
0	394765	74	-nan
0	394765	75	0
0	394765	76	0
0	394765	77	0
0	394765	78	0
0	394765	79	0.33333333333333
0	394765	80	0
0	394765	81	0
0	394765	82	0
0	394765	83	0.33333333333333
0	394765	84	-nan
0	394765	85	0.5
0	394765	86	0
0	394765	87	0
0	394765	88	0
0	394765	89	0.2
0	394765	90	0
0	394765	91	0
0	394765	92	0
0	394765	93	0.33333333333333
0	394765	94	0
0	394765	95	0
0	394765	96	0
0	394765	97	0
0	394765	98	0
0	394765	99	0
0	394765	100	0
0	394765	101	0
0	394765	102	0
0	394765	103	0
0	394765	104	0
0	394765	105	0
0	394765	106	-nan
0	394765	107	0
0	394765	108	0
0	394765	109	0
0	394765	110	-nan
0	394765	111	0
0	394765	112	-nan
0	394765	113	0
0	394765	114	-nan
0	394765	115	0
0	394765	116	0
0	394765	117	0.33333333333333
0	394765	118	0
0	394765	119	-nan
0	394765	120	0
0	394765	121	0
0	394765	122	-nan
0	394765	123	0
0	394765	124	0
0	394765	125	0
0	394765	126	0
0	394765	127	0
0	394765	128	0
0	394765	129	0
0	394765	130	0
0	394765	131	-nan
0	394765	132	-nan
0	394765	133	-nan
0	394765	134	-nan
0	394765	135	0
0	394765	136	0
0	394765	137	0
0	394765	138	0
0	394765	139	0
0	394765	140	0
0	394765	141	-nan
0	394765	142	0
0	394765	143	-nan
0	394765	144	0
0	394765	145	-nan
0	394765	146	-nan
0	394765	147	0
0	394765	148	0
0	394765	149	0
0	394765	150	-nan
0	394765	151	-nan
0	394765	152	0
0	394765	153	0.33333333333333
0	394765	154	0
0	394765	155	-nan
0	394765	156	0
0	394765	157	-nan
0	394765	158	-nan
0	394765	159	-nan
0	394765	160	0
0	394765	161	0
0	394765	162	0
0	394765	163	-nan
0	394765	164	0
0	394765	165	0
0	394765	166	-nan
0	394765	167	-nan
0	394765	168	-nan
0	394765	169	0
0	394765	170	0
0	394765	171	-nan
0	394765	172	0
0	394765	173	0.2
0	394765	174	0
0	394765	175	0
0	394765	176	0
0	394765	177	0
0	394765	178	0
0	394765	179	-nan
0	394765	180	0
0	394765	181	0
0	394765	182	-nan
0	394765	183	-nan
0	394765	184	-nan
0	394765	185	-nan
0	394765	186	-nan
0	394765	187	0
0	394765	188	0
0	394765	189	0
0	394765	190	0
0	394765	191	0.5
0	394765	192	0
0	394765	193	-nan
0	394765	194	0
0	394765	195	0
0	394765	196	-nan
0	394765	197	-nan
0	394765	198	0
0	394765	199	-nan
0	394765	200	0
0	394765	201	0
0	394765	202	0
0	394765	203	0
0	394765	204	0
0	394765	205	0
0	394765	206	-nan
0	394765	207	-nan
0	394765	208	0
0	394765	209	-nan
0	394765	210	0
0	394765	211	-nan
0	394765	212	0
0	394765	213	0
0	394765	214	-nan
0	394765	215	0
0	394765	216	0
0	394765	217	0.25
0	394765	218	-nan
0	394765	219	0
0	394765	220	-nan
0	394765	221	0.33333333333333
0	394765	222	0.25
0	394765	223	-nan
0	394765	224	0.5
0	394765	225	0
0	394765	226	-nan
0	394765	227	0
0	394765	228	0
0	394765	229	0
0	394765	230	-nan
0	394765	231	0
0	394765	232	0
0	394765	233	0
0	394765	234	0
0	394765	235	-nan
0	394765	236	-nan
0	394765	237	-nan
0	394765	238	0
0	394765	239	0
0	394765	240	-nan
0	394765	241	-nan
0	394765	242	0
0	394765	243	-nan
0	394765	244	0
0	394765	245	0
0	394765	246	-nan
0	394765	247	-nan
0	394765	248	0
0	394765	249	0
0	394765	250	-nan
0	394765	251	-nan
0	394765	252	0
0	394765	253	0
0	394765	254	0
0	394765	255	-nan
0	394765	256	0
0	394765	257	0
0	394765	258	-nan
0	394765	259	-nan
0	394765	260	0
0	394765	261	-nan
0	394765	262	-nan
0	394765	263	-nan
0	394765	264	0
0	394765	265	0
0	394765	266	0
0	394765	267	0
0	394765	268	-nan
0	394765	269	-nan
0	394765	270	-nan
0	394765	271	-nan
0	394765	272	0
0	394765	273	0.33333333333333
0	394765	274	-nan
0	394765	275	0
0	394765	276	0
0	394765	277	0
0	394765	278	0.33333333333333
0	394765	279	0
0	394765	280	0
0	394765	281	0
0	394765	282	-nan
0	394765	283	-nan
0	394765	284	0.5
0	394765	285	0
0	394765	286	0
0	394765	287	0
0	394765	288	-nan
0	394765	289	-nan
0	394765	290	0
0	394765	291	0
0	394765	292	-nan
0	394765	293	-nan
0	394765	294	0
0	394765	295	-nan
0	394765	296	-nan
0	394765	297	-nan
0	394765	298	0
0	394765	299	-nan
0	394765	300	0
0	394765	301	0
0	394765	302	-nan
0	394765	303	-nan
0	394765	304	0
0	394765	305	-nan
0	394765	306	0
0	394765	307	0.5
0	394765	308	-nan
0	394765	309	0
0	394765	310	0
0	394765	311	-nan
0	394765	312	-nan
0	394765	313	0.33333333333333
0	394765	314	-nan
0	394765	315	0.5
0	394765	316	0
0	394765	317	0
0	394765	318	0
0	394765	319	0
0	394765	320	0
0	394765	321	0
0	394765	322	-nan
0	394765	323	-nan
0	394765	324	-nan
0	394765	325	-nan
0	394765	326	-nan
0	394765	327	0
0	394765	328	0
0	394765	329	-nan
0	394765	330	-nan
0	394765	331	0
0	394765	332	-nan
0	394765	333	0
0	394765	334	-nan
0	394765	335	0
0	394765	336	0
0	394765	337	-nan
0	394765	338	-nan
0	394765	339	0
0	394765	340	-nan
0	394765	341	0
0	394765	342	-nan
0	394765	343	0
0	394765	344	-nan
0	394765	345	-nan
0	394765	346	-nan
0	394765	347	0
0	394765	348	0
0	394765	349	0
0	394765	350	0
0	394765	351	-nan
0	394765	352	0
0	394765	353	-nan
0	394765	354	-nan
0	394765	355	-nan
0	394765	356	0
0	394765	357	-nan
0	394765	358	0
0	394765	359	-nan
0	394765	360	-nan
0	394765	361	-nan
0	394765	362	0
0	394765	363	0
0	394765	364	-nan
0	394765	365	0
0	394765	366	0
0	394765	367	0
0	394765	368	-nan
0	394765	369	0
0	394765	370	-nan
0	394765	371	0
0	394765	372	-nan
0	394765	373	0
0	394765	374	-nan
0	394765	375	0
0	394765	376	0
0	394765	377	0
0	394765	378	0
0	394765	379	-nan
0	394765	380	-nan
0	394765	381	-nan
0	394765	382	-nan
0	394765	383	-nan
0	394765	384	-nan
0	394765	385	-nan
0	394765	386	-nan
0	394765	387	-nan
0	394765	388	0
0	394765	389	-nan
0	394765	390	0
0	394765	391	0
0	394765	392	-nan
0	394765	393	-nan
0	394765	394	-nan
0	394765	395	0
0	394765	396	-nan
0	394765	397	-nan
0	394765	398	-nan
0	394765	399	-nan
0	394765	400	-nan
0	394765	401	-nan
0	394765	402	-nan
0	394765	403	-nan
0	394765	404	-nan
0	394765	405	0
0	394765	406	0
0	394765	407	-nan
0	394765	408	0
0	394765	409	-nan
0	394765	410	0
0	394765	411	-nan
0	394765	412	0
0	394765	413	0
0	394765	414	0
0	394765	415	-nan
0	394765	416	-nan
0	394765	417	-nan
0	394765	418	0
0	394765	419	-nan
0	394765	420	-nan
0	394765	421	-nan
0	394765	422	-nan
0	394765	423	-nan
0	394765	424	0
0	394765	425	-nan
0	394765	426	0
0	394765	427	-nan
0	394765	428	0
0	394765	429	0
0	394765	430	-nan
0	394765	431	-nan
0	394765	432	-nan
0	394765	433	-nan
0	394765	434	0
0	394765	435	0
0	394765	436	0
0	394765	437	0
0	394765	438	-nan
0	394765	439	-nan
0	394765	440	-nan
0	394765	441	0
0	394765	442	-nan
0	394765	443	-nan
0	394765	444	-nan
0	394765	445	-nan
0	394765	446	0
0	394765	447	-nan
0	394765	448	0
0	394765	449	0.5
0	394765	450	-nan
0	394765	451	-nan
0	394765	452	0
0	394765	453	-nan
0	394765	454	-nan
0	394765	455	0
0	394765	456	0
0	394765	457	-nan
0	394765	458	0
0	394765	459	0
0	394765	460	-nan
0	394765	461	0
0	394765	462	0
0	394765	463	-nan
0	394765	464	-nan
0	394765	465	0
0	394765	466	-nan
0	394765	467	-nan
0	394765	468	0
0	394765	469	0
0	394765	470	-nan
0	394765	471	0
0	394765	472	-nan
0	394765	473	-nan
0	394765	474	-nan
0	394765	475	-nan
0	394765	476	0
0	394765	477	0
0	394765	478	-nan
0	394765	479	0
0	394765	480	0
0	394765	481	0
0	394765	482	-nan
0	394765	483	-nan
0	394765	484	-nan
0	394765	485	0
0	394765	486	-nan
0	394765	487	0
0	394765	488	-nan
0	394765	489	0
0	394765	490	-nan
0	394765	491	-nan
0	394765	492	0
0	394765	493	-nan
0	394765	494	-nan
0	394765	495	-nan
0	394765	496	0
0	394765	497	0
0	394765	498	0
0	394765	499	-nan
0	394765	500	-nan
0	394765	501	-nan
0	394765	502	-nan
0	394765	503	-nan
0	394765	504	-nan
0	394765	505	-nan
0	394765	506	-nan
0	394765	507	0
0	394765	508	-nan
0	394765	509	-nan
0	394765	510	0
0	394765	511	-nan
0	394765	512	0
0	394765	513	-nan
0	394765	514	-nan
0	394765	515	-nan
0	394765	516	-nan
0	394765	517	-nan
0	394765	518	0
0	394765	519	-nan
0	394765	520	-nan
0	394765	521	-nan
0	394765	522	0
0	394765	523	-nan
0	394765	524	-nan
0	394765	525	0
0	394765	526	-nan
0	394765	527	0
0	394765	528	-nan
0	394765	529	-nan
0	394765	530	0
0	394765	531	0
0	394765	532	-nan
0	394765	533	-nan
0	394765	534	-nan
0	394765	535	-nan
0	394765	536	0
0	394765	537	0
0	394765	538	-nan
0	394765	539	0
0	394765	540	-nan
0	394765	541	0
0	394765	542	-nan
0	394765	543	0
0	394765	544	-nan
0	394765	545	-nan
0	394765	546	0
0	394765	547	-nan
0	394765	548	0
0	394765	549	-nan
0	394765	550	-nan
0	394765	551	-nan
0	394765	552	-nan
0	394765	553	-nan
0	394765	554	0
0	394765	555	-nan
0	394765	556	-nan
0	394765	557	0.5
0	394765	558	-nan
0	394765	559	-nan
0	394765	560	-nan
0	394765	561	-nan
0	394765	562	-nan
0	394765	563	-nan
0	394765	564	0
0	394765	565	-nan
0	394765	566	0
0	394765	567	-nan
0	394765	568	-nan
0	394765	569	0
0	394765	570	-nan
0	394765	571	-nan
0	394765	572	0
0	394765	573	0
0	394765	574	-nan
0	394765	575	-nan
0	394765	576	-nan
0	394765	577	-nan
0	394765	578	-nan
0	394765	579	-nan
0	394765	580	-nan
0	394765	581	-nan
0	394765	582	0
0	394765	583	-nan
0	394765	584	0
0	394765	585	-nan
0	394765	586	0
0	394765	587	-nan
0	394765	588	-nan
0	394765	589	-nan
0	394765	590	-nan
0	394765	591	-nan
0	394765	592	-nan
0	394765	593	0
0	394765	594	0
0	394765	595	0
0	394765	596	-nan
0	394765	597	-nan
0	394765	598	-nan
0	394765	599	-nan
0	394765	600	0
0	394765	601	-nan
0	394765	602	0
0	394765	603	-nan
0	394765	604	0
vector 1  abilene_network.node[1].content_store  hit_node[1]  ETV
1	394765	1	0.78787878787879
1	394765	2	0.68888888888889
1	394765	3	0.56410256410256
1	394765	4	0.42424242424242
1	394765	5	0.66666666666667
1	394765	6	0.48387096774194
1	394765	7	0.46428571428571
1	394765	8	0.39130434782609
1	394765	9	0.41666666666667
1	394765	10	0.40909090909091
1	394765	11	0.35
1	394765	12	0.22727272727273
1	394765	13	0.33333333333333
1	394765	14	0.3
1	394765	15	0.16666666666667
1	394765	16	0.15789473684211
1	394765	17	0.25
1	394765	18	0.3125
1	394765	19	0.31578947368421
1	394765	20	0.15384615384615
1	394765	21	0.083333333333333
1	394765	22	0.21428571428571
1	394765	23	0.090909090909091
1	394765	24	0.21428571428571
1	394765	25	0.11111111111111
1	394765	26	0.066666666666667
1	394765	27	0.22222222222222
1	394765	28	0.11111111111111
1	394765	29	0.090909090909091
1	394765	30	0.35
1	394765	31	0
1	394765	32	0.21428571428571
1	394765	33	0.28571428571429
1	394765	34	0.16666666666667
1	394765	35	0.28571428571429
1	394765	36	0.15384615384615
1	394765	37	0.1875
1	394765	38	0.22222222222222
1	394765	39	0.27272727272727
1	394765	40	0
1	394765	41	0.125
1	394765	42	0.33333333333333
1	394765	43	0
1	394765	44	0.3
1	394765	45	0.28571428571429
1	394765	46	0.11111111111111
1	394765	47	0.14285714285714
1	394765	48	0
1	394765	49	0
1	394765	50	0.33333333333333
1	394765	51	0
1	394765	52	0.2
1	394765	53	0.33333333333333
1	394765	54	0.16666666666667
1	394765	55	0.14285714285714
1	394765	56	0.11111111111111
1	394765	57	0
1	394765	58	0.22222222222222
1	394765	59	0.1
1	394765	60	0.14285714285714
1	394765	61	0
1	394765	62	0.25
1	394765	63	0.125
1	394765	64	0.33333333333333
1	394765	65	0.25
1	394765	66	0.14285714285714
1	394765	67	0.14285714285714
1	394765	68	0
1	394765	69	0
1	394765	70	0.30769230769231
1	394765	71	0.14285714285714
1	394765	72	0.16666666666667
1	394765	73	0
1	394765	74	0.16666666666667
1	394765	75	0.16666666666667
1	394765	76	0.16666666666667
1	394765	77	0
1	394765	78	0.25
1	394765	79	0
1	394765	80	0
1	394765	81	0
1	394765	82	0.125
1	394765	83	0.28571428571429
1	394765	84	0
1	394765	85	0.2
1	394765	86	0.28571428571429
1	394765	87	0
1	394765	88	0.14285714285714
1	394765	89	0
1	394765	90	0.16666666666667
1	394765	91	0
1	394765	92	0.2
1	394765	93	0
1	394765	94	0.2
1	394765	95	0
1	394765	96	0.14285714285714
1	394765	97	0.16666666666667
1	394765	98	0
1	394765	99	0
1	394765	100	0.2
1	394765	101	0
1	394765	102	0
1	394765	103	0
1	394765	104	0
1	394765	105	0.16666666666667
1	394765	106	-nan
1	394765	107	0
1	394765	108	0
1	394765	109	0.25
1	394765	110	0.25
1	394765	111	0.33333333333333
1	394765	112	0
1	394765	113	0
1	394765	114	-nan
1	394765	115	0
1	394765	116	0.14285714285714
1	394765	117	0
1	394765	118	0.16666666666667
1	394765	119	0
1	394765	120	0
1	394765	121	0
1	394765	122	0
1	394765	123	0
1	394765	124	0
1	394765	125	0
1	394765	126	0
1	394765	127	0
1	394765	128	0
1	394765	129	0
1	394765	130	0.25
1	394765	131	0
1	394765	132	0
1	394765	133	0
1	394765	134	0
1	394765	135	0
1	394765	136	0
1	394765	137	0
1	394765	138	0
1	394765	139	0
1	394765	140	0.2
1	394765	141	0
1	394765	142	0
1	394765	143	0
1	394765	144	0
1	394765	145	0
1	394765	146	0.2
1	394765	147	0
1	394765	148	0
1	394765	149	0
1	394765	150	0
1	394765	151	0
1	394765	152	0
1	394765	153	0.25
1	394765	154	0
1	394765	155	0
1	394765	156	0
1	394765	157	0
1	394765	158	-nan
1	394765	159	0
1	394765	160	0
1	394765	161	0.14285714285714
1	394765	162	0
1	394765	163	0
1	394765	164	0
1	394765	165	0.4
1	394765	166	0
1	394765	167	0
1	394765	168	0
1	394765	169	0
1	394765	170	0
1	394765	171	0
1	394765	172	0
1	394765	173	0
1	394765	174	0
1	394765	175	0.14285714285714
1	394765	176	0
1	394765	177	0
1	394765	178	0
1	394765	179	0
1	394765	180	0
1	394765	181	0
1	394765	182	-nan
1	394765	183	0
1	394765	184	-nan
1	394765	185	0
1	394765	186	0
1	394765	187	0
1	394765	188	0
1	394765	189	0
1	394765	190	0
1	394765	191	0
1	394765	192	0
1	394765	193	0
1	394765	194	0
1	394765	195	0
1	394765	196	-nan
1	394765	197	0
1	394765	198	0
1	394765	199	0
1	394765	200	0
1	394765	201	0
1	394765	202	0
1	394765	203	0.5
1	394765	204	0
1	394765	205	0
1	394765	206	0
1	394765	207	0
1	394765	208	0.33333333333333
1	394765	209	0
1	394765	210	0
1	394765	211	0
1	394765	212	0.33333333333333
1	394765	213	0
1	394765	214	0
1	394765	215	0
1	394765	216	0
1	394765	217	0
1	394765	218	0
1	394765	219	0
1	394765	220	0
1	394765	221	0
1	394765	222	0.2
1	394765	223	0
1	394765	224	0
1	394765	225	0
1	394765	226	0
1	394765	227	0.33333333333333
1	394765	228	0.16666666666667
1	394765	229	0.2
1	394765	230	0
1	394765	231	0
1	394765	232	0
1	394765	233	0
1	394765	234	0
1	394765	235	0
1	394765	236	0
1	394765	237	0
1	394765	238	0
1	394765	239	0
1	394765	240	0
1	394765	241	0
1	394765	242	0
1	394765	243	0
1	394765	244	0.25
1	394765	245	0
1	394765	246	0
1	394765	247	0
1	394765	248	0
1	394765	249	0.25
1	394765	250	0
1	394765	251	0
1	394765	252	0
1	394765	253	0
1	394765	254	0
1	394765	255	0
1	394765	256	0
1	394765	257	0
1	394765	258	0
1	394765	259	0
1	394765	260	0
1	394765	261	0
1	394765	262	0
1	394765	263	0.33333333333333
1	394765	264	0
1	394765	265	0
1	394765	266	0
1	394765	267	0
1	394765	268	-nan
1	394765	269	-nan
1	394765	270	-nan
1	394765	271	0
1	394765	272	0
1	394765	273	0
1	394765	274	0
1	394765	275	0
1	394765	276	0
1	394765	277	0
1	394765	278	0
1	394765	279	0.33333333333333
1	394765	280	0
1	394765	281	0
1	394765	282	0
1	394765	283	0
1	394765	284	0
1	394765	285	0
1	394765	286	0
1	394765	287	0
1	394765	288	0
1	394765	289	0
1	394765	290	0
1	394765	291	0
1	394765	292	0
1	394765	293	0
1	394765	294	0
1	394765	295	-nan
1	394765	296	0
1	394765	297	0
1	394765	298	0
1	394765	299	-nan
1	394765	300	0
1	394765	301	0
1	394765	302	0
1	394765	303	-nan
1	394765	304	0
1	394765	305	-nan
1	394765	306	0
1	394765	307	0
1	394765	308	0
1	394765	309	0
1	394765	310	0
1	394765	311	0
1	394765	312	0
1	394765	313	0.16666666666667
1	394765	314	0
1	394765	315	0
1	394765	316	0
1	394765	317	0
1	394765	318	0
1	394765	319	0
1	394765	320	0
1	394765	321	0
1	394765	322	-nan
1	394765	323	-nan
1	394765	324	0
1	394765	325	0
1	394765	326	0
1	394765	327	0
1	394765	328	0
1	394765	329	0
1	394765	330	0
1	394765	331	0
1	394765	332	0
1	394765	333	0
1	394765	334	0
1	394765	335	0
1	394765	336	0
1	394765	337	-nan
1	394765	338	0
1	394765	339	0
1	394765	340	-nan
1	394765	341	0
1	394765	342	0
1	394765	343	0
1	394765	344	0
1	394765	345	-nan
1	394765	346	0
1	394765	347	0
1	394765	348	0
1	394765	349	0
1	394765	350	0
1	394765	351	-nan
1	394765	352	0
1	394765	353	0
1	394765	354	0
1	394765	355	0
1	394765	356	0
1	394765	357	0
1	394765	358	0
1	394765	359	0
1	394765	360	-nan
1	394765	361	-nan
1	394765	362	0
1	394765	363	0
1	394765	364	-nan
1	394765	365	0
1	394765	366	0
1	394765	367	0
1	394765	368	0
1	394765	369	0
1	394765	370	0
1	394765	371	0
1	394765	372	-nan
1	394765	373	0
1	394765	374	0
1	394765	375	0
1	394765	376	0.2
1	394765	377	0
1	394765	378	0
1	394765	379	-nan
1	394765	380	-nan
1	394765	381	0
1	394765	382	0
1	394765	383	0
1	394765	384	0
1	394765	385	0
1	394765	386	0
1	394765	387	0
1	394765	388	0
1	394765	389	0
1	394765	390	0
1	394765	391	0
1	394765	392	-nan
1	394765	393	0.2
1	394765	394	0
1	394765	395	0
1	394765	396	-nan
1	394765	397	0
1	394765	398	-nan
1	394765	399	0
1	394765	400	-nan
1	394765	401	-nan
1	394765	402	0
1	394765	403	0
1	394765	404	-nan
1	394765	405	0
1	394765	406	0
1	394765	407	0
1	394765	408	0
1	394765	409	-nan
1	394765	410	0
1	394765	411	-nan
1	394765	412	0
1	394765	413	0
1	394765	414	0
1	394765	415	-nan
1	394765	416	0
1	394765	417	0
1	394765	418	0
1	394765	419	-nan
1	394765	420	0
1	394765	421	0
1	394765	422	0
1	394765	423	0
1	394765	424	0
1	394765	425	-nan
1	394765	426	0
1	394765	427	-nan
1	394765	428	0
1	394765	429	0
1	394765	430	0
1	394765	431	-nan
1	394765	432	-nan
1	394765	433	0
1	394765	434	0
1	394765	435	0
1	394765	436	0
1	394765	437	0
1	394765	438	0
1	394765	439	0
1	394765	440	0
1	394765	441	0
1	394765	442	0
1	394765	443	0
1	394765	444	0
1	394765	445	0
1	394765	446	0
1	394765	447	0
1	394765	448	0
1	394765	449	0
1	394765	450	0
1	394765	451	-nan
1	394765	452	0
1	394765	453	-nan
1	394765	454	0
1	394765	455	0
1	394765	456	0
1	394765	457	-nan
1	394765	458	0
1	394765	459	0.25
1	394765	460	-nan
1	394765	461	0
1	394765	462	0
1	394765	463	0
1	394765	464	-nan
1	394765	465	0
1	394765	466	-nan
1	394765	467	-nan
1	394765	468	0
1	394765	469	0
1	394765	470	-nan
1	394765	471	0
1	394765	472	0.25
1	394765	473	-nan
1	394765	474	0
1	394765	475	-nan
1	394765	476	0
1	394765	477	0
1	394765	478	0
1	394765	479	0
1	394765	480	0.33333333333333
1	394765	481	0
1	394765	482	0
1	394765	483	-nan
1	394765	484	-nan
1	394765	485	0
1	394765	486	-nan
1	394765	487	0.33333333333333
1	394765	488	0
1	394765	489	0
1	394765	490	0
1	394765	491	-nan
1	394765	492	0
1	394765	493	0
1	394765	494	-nan
1	394765	495	0
1	394765	496	0
1	394765	497	0
1	394765	498	0
1	394765	499	0
1	394765	500	-nan
1	394765	501	0
1	394765	502	-nan
1	394765	503	0
1	394765	504	0
1	394765	505	-nan
1	394765	506	0
1	394765	507	0
1	394765	508	-nan
1	394765	509	0
1	394765	510	0
1	394765	511	0
1	394765	512	0
1	394765	513	-nan
1	394765	514	0
1	394765	515	0
1	394765	516	-nan
1	394765	517	-nan
1	394765	518	0
1	394765	519	-nan
1	394765	520	0
1	394765	521	-nan
1	394765	522	0
1	394765	523	0
1	394765	524	0
1	394765	525	0
1	394765	526	-nan
1	394765	527	0
1	394765	528	0
1	394765	529	-nan
1	394765	530	0
1	394765	531	0
1	394765	532	0
1	394765	533	0
1	394765	534	0
1	394765	535	0
1	394765	536	0
1	394765	537	0
1	394765	538	0
1	394765	539	0
1	394765	540	-nan
1	394765	541	0.5
1	394765	542	-nan
1	394765	543	0
1	394765	544	0
1	394765	545	0
1	394765	546	0
1	394765	547	-nan
1	394765	548	0
1	394765	549	0
1	394765	550	-nan
1	394765	551	0
1	394765	552	-nan
1	394765	553	0
1	394765	554	0
1	394765	555	-nan
1	394765	556	-nan
1	394765	557	0
1	394765	558	-nan
1	394765	559	-nan
1	394765	560	-nan
1	394765	561	-nan
1	394765	562	-nan
1	394765	563	0
1	394765	564	0
1	394765	565	-nan
1	394765	566	0
1	394765	567	0
1	394765	568	-nan
1	394765	569	0
1	394765	570	0
1	394765	571	-nan
1	394765	572	0
1	394765	573	0
1	394765	574	0
1	394765	575	0
1	394765	576	-nan
1	394765	577	0
1	394765	578	0
1	394765	579	-nan
1	394765	580	0
1	394765	581	0
1	394765	582	0
1	394765	583	0
1	394765	584	0
1	394765	585	-nan
1	394765	586	0
1	394765	587	0
1	394765	588	0
1	394765	589	0
1	394765	590	-nan
1	394765	591	0
1	394765	592	-nan
1	394765	593	0
1	394765	594	0
1	394765	595	0
1	394765	596	-nan
1	394765	597	-nan
1	394765	598	-nan
1	394765	599	-nan
1	394765	600	0
1	394765	601	0
1	394765	602	0
1	394765	603	0
1	394765	604	0
vector 2  abilene_network.node[2].content_store  hit_node[2]  ETV
2	394765	1	0.78205128205128
2	394765	2	0.62295081967213
2	394765	3	0.38095238095238
2	394765	4	0.35
2	394765	5	0.46153846153846
2	394765	6	0.34285714285714
2	394765	7	0.21428571428571
2	394765	8	0.25925925925926
2	394765	9	0.2
2	394765	10	0.38461538461538
2	394765	11	0.3
2	394765	12	0.26086956521739
2	394765	13	0.13636363636364
2	394765	14	0.1
2	394765	15	0.071428571428571
2	394765	16	0.27272727272727
2	394765	17	0.1
2	394765	18	0.125
2	394765	19	0.052631578947368
2	394765	20	0.13333333333333
2	394765	21	0.26086956521739
2	394765	22	0.0625
2	394765	23	0.125
2	394765	24	0.2
2	394765	25	0.13333333333333
2	394765	26	0.10526315789474
2	394765	27	0
2	394765	28	0.083333333333333
2	394765	29	0.25
2	394765	30	0.10526315789474
2	394765	31	0.28571428571429
2	394765	32	0
2	394765	33	0.076923076923077
2	394765	34	0.083333333333333
2	394765	35	0.11764705882353
2	394765	36	0.0625
2	394765	37	0
2	394765	38	0.16666666666667
2	394765	39	0.18181818181818
2	394765	40	0
2	394765	41	0.22222222222222
2	394765	42	0
2	394765	43	0.125
2	394765	44	0.18181818181818
2	394765	45	0
2	394765	46	0.16666666666667
2	394765	47	0
2	394765	48	0
2	394765	49	0
2	394765	50	0
2	394765	51	0
2	394765	52	0.25
2	394765	53	0.28571428571429
2	394765	54	0.11111111111111
2	394765	55	0
2	394765	56	0.083333333333333
2	394765	57	0
2	394765	58	0
2	394765	59	0
2	394765	60	0
2	394765	61	0
2	394765	62	0
2	394765	63	0
2	394765	64	0
2	394765	65	0
2	394765	66	0
2	394765	67	0
2	394765	68	0
2	394765	69	0
2	394765	70	0
2	394765	71	0
2	394765	72	0.33333333333333
2	394765	73	0
2	394765	74	0
2	394765	75	0.16666666666667
2	394765	76	0
2	394765	77	0
2	394765	78	0.33333333333333
2	394765	79	0
2	394765	80	0
2	394765	81	0
2	394765	82	0.090909090909091
2	394765	83	0
2	394765	84	0
2	394765	85	0
2	394765	86	0
2	394765	87	0.125
2	394765	88	0
2	394765	89	0.125
2	394765	90	0
2	394765	91	0
2	394765	92	0
2	394765	93	0
2	394765	94	0
2	394765	95	0.25
2	394765	96	0
2	394765	97	0
2	394765	98	0
2	394765	99	0
2	394765	100	0.125
2	394765	101	0
2	394765	102	0
2	394765	103	0
2	394765	104	0
2	394765	105	0
2	394765	106	0
2	394765	107	0
2	394765	108	0
2	394765	109	0
2	394765	110	0.25
2	394765	111	0
2	394765	112	0
2	394765	113	0.16666666666667
2	394765	114	0
2	394765	115	0.25
2	394765	116	0
2	394765	117	0
2	394765	118	0.125
2	394765	119	0
2	394765	120	0
2	394765	121	0
2	394765	122	0
2	394765	123	0
2	394765	124	0
2	394765	125	0
2	394765	126	0
2	394765	127	0
2	394765	128	0
2	394765	129	0
2	394765	130	0.16666666666667
2	394765	131	0
2	394765	132	0
2	394765	133	0
2	394765	134	0
2	394765	135	0.11111111111111
2	394765	136	0
2	394765	137	0
2	394765	138	0
2	394765	139	0
2	394765	140	0
2	394765	141	0
2	394765	142	0
2	394765	143	0
2	394765	144	0.16666666666667
2	394765	145	0
2	394765	146	0
2	394765	147	0
2	394765	148	0
2	394765	149	0
2	394765	150	0
2	394765	151	0
2	394765	152	0
2	394765	153	0
2	394765	154	0.14285714285714
2	394765	155	0
2	394765	156	0.11111111111111
2	394765	157	0
2	394765	158	0
2	394765	159	0
2	394765	160	0.11111111111111
2	394765	161	0.125
2	394765	162	0
2	394765	163	0
2	394765	164	0
2	394765	165	0
2	394765	166	0
2	394765	167	0
2	394765	168	0
2	394765	169	0
2	394765	170	0
2	394765	171	0
2	394765	172	0
2	394765	173	0
2	394765	174	0
2	394765	175	0
2	394765	176	0.2
2	394765	177	0
2	394765	178	0
2	394765	179	0
2	394765	180	0
2	394765	181	0
2	394765	182	-nan
2	394765	183	0
2	394765	184	0
2	394765	185	0
2	394765	186	0
2	394765	187	0
2	394765	188	0
2	394765	189	0
2	394765	190	0
2	394765	191	0
2	394765	192	0
2	394765	193	0
2	394765	194	0
2	394765	195	0
2	394765	196	0
2	394765	197	0
2	394765	198	0
2	394765	199	0
2	394765	200	0
2	394765	201	0.28571428571429
2	394765	202	0
2	394765	203	0
2	394765	204	0
2	394765	205	0
2	394765	206	0
2	394765	207	0
2	394765	208	0
2	394765	209	0
2	394765	210	0
2	394765	211	0
2	394765	212	0
2	394765	213	0
2	394765	214	0
2	394765	215	0
2	394765	216	0
2	394765	217	0
2	394765	218	0
2	394765	219	0
2	394765	220	0
2	394765	221	0
2	394765	222	0
2	394765	223	0
2	394765	224	0
2	394765	225	0.33333333333333
2	394765	226	0
2	394765	227	0
2	394765	228	0
2	394765	229	0.125
2	394765	230	0
2	394765	231	0
2	394765	232	0
2	394765	233	0.2
2	394765	234	0
2	394765	235	0
2	394765	236	0
2	394765	237	0
2	394765	238	0
2	394765	239	0
2	394765	240	0
2	394765	241	0
2	394765	242	0
2	394765	243	0.25
2	394765	244	0
2	394765	245	0
2	394765	246	0
2	394765	247	0
2	394765	248	0
2	394765	249	0
2	394765	250	0
2	394765	251	0
2	394765	252	0
2	394765	253	0
2	394765	254	0
2	394765	255	0
2	394765	256	0
2	394765	257	0
2	394765	258	0
2	394765	259	0
2	394765	260	0
2	394765	261	0
2	394765	262	0
2	394765	263	0
2	394765	264	0
2	394765	265	0
2	394765	266	0
2	394765	267	0
2	394765	268	-nan
2	394765	269	-nan
2	394765	270	0
2	394765	271	0
2	394765	272	0
2	394765	273	0
2	394765	274	0
2	394765	275	0
2	394765	276	0
2	394765	277	0
2	394765	278	0.2
2	394765	279	0
2	394765	280	0
2	394765	281	0
2	394765	282	0
2	394765	283	0
2	394765	284	0
2	394765	285	0
2	394765	286	0
2	394765	287	0
2	394765	288	0
2	394765	289	0
2	394765	290	0
2	394765	291	0.25
2	394765	292	0
2	394765	293	0
2	394765	294	0
2	394765	295	0
2	394765	296	0
2	394765	297	0
2	394765	298	0
2	394765	299	0
2	394765	300	0.16666666666667
2	394765	301	0
2	394765	302	0
2	394765	303	-nan
2	394765	304	0
2	394765	305	-nan
2	394765	306	0
2	394765	307	0
2	394765	308	0
2	394765	309	0
2	394765	310	0.25
2	394765	311	0.25
2	394765	312	0
2	394765	313	0
2	394765	314	0
2	394765	315	0
2	394765	316	0
2	394765	317	0
2	394765	318	0
2	394765	319	0
2	394765	320	0
2	394765	321	0
2	394765	322	-nan
2	394765	323	0
2	394765	324	0
2	394765	325	0
2	394765	326	0
2	394765	327	0
2	394765	328	0
2	394765	329	0
2	394765	330	0
2	394765	331	0
2	394765	332	0.5
2	394765	333	0
2	394765	334	0
2	394765	335	0
2	394765	336	0
2	394765	337	-nan
2	394765	338	0
2	394765	339	0
2	394765	340	0
2	394765	341	0
2	394765	342	0
2	394765	343	0
2	394765	344	0
2	394765	345	-nan
2	394765	346	0
2	394765	347	0
2	394765	348	0
2	394765	349	0
2	394765	350	0
2	394765	351	0
2	394765	352	0
2	394765	353	0
2	394765	354	0
2	394765	355	0.25
2	394765	356	0
2	394765	357	0
2	394765	358	0.25
2	394765	359	0
2	394765	360	-nan
2	394765	361	-nan
2	394765	362	0
2	394765	363	0
2	394765	364	0
2	394765	365	0
2	394765	366	0
2	394765	367	0
2	394765	368	0
2	394765	369	0
2	394765	370	0
2	394765	371	0
2	394765	372	-nan
2	394765	373	0
2	394765	374	0
2	394765	375	0
2	394765	376	0.14285714285714
2	394765	377	0
2	394765	378	0
2	394765	379	-nan
2	394765	380	-nan
2	394765	381	0
2	394765	382	0
2	394765	383	0
2	394765	384	0
2	394765	385	0
2	394765	386	0
2	394765	387	0
2	394765	388	0
2	394765	389	0
2	394765	390	0
2	394765	391	0
2	394765	392	0
2	394765	393	0
2	394765	394	0
2	394765	395	0
2	394765	396	0
2	394765	397	0
2	394765	398	0
2	394765	399	0
2	394765	400	0
2	394765	401	-nan
2	394765	402	0
2	394765	403	0
2	394765	404	-nan
2	394765	405	0
2	394765	406	0
2	394765	407	0
2	394765	408	0
2	394765	409	-nan
2	394765	410	0.16666666666667
2	394765	411	-nan
2	394765	412	0
2	394765	413	0
2	394765	414	0
2	394765	415	0
2	394765	416	0
2	394765	417	0
2	394765	418	0
2	394765	419	0
2	394765	420	0
2	394765	421	0
2	394765	422	0
2	394765	423	0
2	394765	424	0
2	394765	425	0
2	394765	426	0
2	394765	427	-nan
2	394765	428	0
2	394765	429	0
2	394765	430	0
2	394765	431	-nan
2	394765	432	-nan
2	394765	433	0
2	394765	434	0.33333333333333
2	394765	435	0
2	394765	436	0
2	394765	437	0
2	394765	438	0
2	394765	439	0
2	394765	440	0
2	394765	441	0.2
2	394765	442	0
2	394765	443	0
2	394765	444	0
2	394765	445	0
2	394765	446	0
2	394765	447	0
2	394765	448	0
2	394765	449	0
2	394765	450	0
2	394765	451	-nan
2	394765	452	0
2	394765	453	-nan
2	394765	454	0
2	394765	455	0
2	394765	456	0
2	394765	457	-nan
2	394765	458	0
2	394765	459	0
2	394765	460	-nan
2	394765	461	0
2	394765	462	0
2	394765	463	0.5
2	394765	464	-nan
2	394765	465	0
2	394765	466	-nan
2	394765	467	-nan
2	394765	468	0
2	394765	469	0
2	394765	470	-nan
2	394765	471	0
2	394765	472	0
2	394765	473	-nan
2	394765	474	0
2	394765	475	0
2	394765	476	0
2	394765	477	0
2	394765	478	0
2	394765	479	0
2	394765	480	0
2	394765	481	0
2	394765	482	0
2	394765	483	0
2	394765	484	0
2	394765	485	0
2	394765	486	0
2	394765	487	0
2	394765	488	0
2	394765	489	0
2	394765	490	0
2	394765	491	0
2	394765	492	0
2	394765	493	0
2	394765	494	-nan
2	394765	495	0
2	394765	496	0
2	394765	497	0
2	394765	498	0
2	394765	499	0
2	394765	500	-nan
2	394765	501	0
2	394765	502	-nan
2	394765	503	0
2	394765	504	0
2	394765	505	-nan
2	394765	506	0
2	394765	507	0
2	394765	508	0