version 2
run General-4-20140103-22:17:54-32212
attr D lce
attr F spr
attr R lru
attr a 1
attr configname General
attr csize 10^2
attr datetime 20140103-22:17:54
attr experiment General
attr inifile omnetpp.ini
attr iterationvars "$net=simple_scenario_cache_in_the_core, $rep=0, $a=1, $F=spr, $ttl=1000, $D=lce, $R=lru, $csize=10^2"
attr iterationvars2 "$net=simple_scenario_cache_in_the_core, $rep=0, $a=1, $F=spr, $ttl=1000, $D=lce, $R=lru, $csize=10^2, $repetition=0"
attr measurement "$net=simple_scenario_cache_in_the_core, $rep=0, $a=1, $F=spr, $ttl=1000, $D=lce, $R=lru, $csize=10^2"
attr net simple_scenario_cache_in_the_core
attr network networks.${net=simple_scenario_cache_in_the_core,simple_scenario_cache_at_border}_network
attr processid 32212
attr rep 0
attr repetition 0
attr replication #0
attr resultdir results
attr runnumber 4
attr seedset 0
attr ttl 1000

vector 24  simple_scenario_cache_in_the_core_network.node[0].content_store  hit_node[0]  ETV
24	1147696	1	0.99944142993936
24	1147696	2	0.98503423021812
24	1147696	3	0.9388246628131
24	1147696	4	0.87759067357513
24	1147696	5	0.81707317073171
24	1147696	6	0.74446583253128
24	1147696	7	0.69284064665127
24	1147696	8	0.64770523594053
24	1147696	9	0.60029828486204
24	1147696	10	0.5648369132856
24	1147696	11	0.4959202175884
24	1147696	12	0.51803885291397
24	1147696	13	0.45881126173097
24	1147696	14	0.43222222222222
24	1147696	15	0.41676646706587
24	1147696	16	0.39648682559598
24	1147696	17	0.39257294429708
24	1147696	18	0.35907859078591
24	1147696	19	0.36476043276662
24	1147696	20	0.3265306122449
24	1147696	21	0.30769230769231
24	1147696	22	0.30518234165067
24	1147696	23	0.30314232902033
24	1147696	24	0.28956834532374
24	1147696	25	0.26061776061776
24	1147696	26	0.24229074889868
24	1147696	27	0.27800829875519
24	1147696	28	0.23981900452489
24	1147696	29	0.23514851485149
24	1147696	30	0.25576036866359
24	1147696	31	0.2589928057554
24	1147696	32	0.19804400977995
24	1147696	33	0.25647668393782
24	1147696	34	0.2382271468144
24	1147696	35	0.22485207100592
24	1147696	36	0.19076923076923
24	1147696	37	0.19435736677116
24	1147696	38	0.19814241486068
24	1147696	39	0.18237082066869
24	1147696	40	0.20872274143302
24	1147696	41	0.20253164556962
24	1147696	42	0.17725752508361
24	1147696	43	0.15331010452962
24	1147696	44	0.13207547169811
24	1147696	45	0.17832167832168
24	1147696	46	0.14432989690722
24	1147696	47	0.14942528735632
24	1147696	48	0.17454545454545
24	1147696	49	0.15702479338843
24	1147696	50	0.10373443983402
24	1147696	51	0.14344262295082
24	1147696	52	0.13333333333333
24	1147696	53	0.15720524017467
24	1147696	54	0.18410041841004
24	1147696	55	0.15348837209302
24	1147696	56	0.15813953488372
24	1147696	57	0.15111111111111
24	1147696	58	0.1256038647343
24	1147696	59	0.15454545454545
24	1147696	60	0.14155251141553
24	1147696	61	0.088397790055249
24	1147696	62	0.13157894736842
24	1147696	63	0.11855670103093
24	1147696	64	0.11538461538462
24	1147696	65	0.11891891891892
24	1147696	66	0.11111111111111
24	1147696	67	0.19117647058824
24	1147696	68	0.13861386138614
24	1147696	69	0.12626262626263
24	1147696	70	0.13513513513514
24	1147696	71	0.10869565217391
24	1147696	72	0.1039603960396
24	1147696	73	0.11111111111111
24	1147696	74	0.095808383233533
24	1147696	75	0.13903743315508
24	1147696	76	0.087837837837838
24	1147696	77	0.14130434782609
24	1147696	78	0.042424242424242
24	1147696	79	0.088050314465409
24	1147696	80	0.1048951048951
24	1147696	81	0.11875
24	1147696	82	0.083333333333333
24	1147696	83	0.066666666666667
24	1147696	84	0.08974358974359
24	1147696	85	0.10071942446043
24	1147696	86	0.1219512195122
24	1147696	87	0.099337748344371
24	1147696	88	0.054263565891473
24	1147696	89	0.099290780141844
24	1147696	90	0.13245033112583
24	1147696	91	0.10791366906475
24	1147696	92	0.080536912751678
24	1147696	93	0.1171875
24	1147696	94	0.096491228070175
24	1147696	95	0.091603053435115
24	1147696	96	0.090909090909091
24	1147696	97	0.066115702479339
24	1147696	98	0.083969465648855
24	1147696	99	0.10416666666667
24	1147696	100	0.069444444444444
24	1147696	101	0.13970588235294
24	1147696	102	0.064516129032258
24	1147696	103	0.049180327868852
24	1147696	104	0.03
24	1147696	105	0.050847457627119
24	1147696	106	0.08029197080292
24	1147696	107	0.087719298245614
24	1147696	108	0.11818181818182
24	1147696	109	0.083333333333333
24	1147696	110	0.15315315315315
24	1147696	111	0.091666666666667
24	1147696	112	0.038834951456311
24	1147696	113	0.085271317829457
24	1147696	114	0.12173913043478
24	1147696	115	0.045045045045045
24	1147696	116	0.077669902912621
24	1147696	117	0.056603773584906
24	1147696	118	0.041237113402062
24	1147696	119	0.09375
24	1147696	120	0.076923076923077
24	1147696	121	0.033707865168539
24	1147696	122	0
24	1147696	123	0.090909090909091
24	1147696	124	0.063636363636364
24	1147696	125	0.081081081081081
24	1147696	126	0.092592592592593
24	1147696	127	0.10909090909091
24	1147696	128	0.070175438596491
24	1147696	129	0.024691358024691
24	1147696	130	0.047619047619048
24	1147696	131	0.061946902654867
24	1147696	132	0.066666666666667
24	1147696	133	0.079646017699115
24	1147696	134	0.061224489795918
24	1147696	135	0.076923076923077
24	1147696	136	0.081395348837209
24	1147696	137	0.053191489361702
24	1147696	138	0.094339622641509
24	1147696	139	0.070707070707071
24	1147696	140	0.02247191011236
24	1147696	141	0.05
24	1147696	142	0.030612244897959
24	1147696	143	0.055555555555556
24	1147696	144	0.033707865168539
24	1147696	145	0.053333333333333
24	1147696	146	0.068965517241379
24	1147696	147	0.047619047619048
24	1147696	148	0.098765432098765
24	1147696	149	0.051282051282051
24	1147696	150	0.013698630136986
24	1147696	151	0.079545454545455
24	1147696	152	0.061728395061728
24	1147696	153	0.061855670103093
24	1147696	154	0.040540540540541
24	1147696	155	0.025316455696203
24	1147696	156	0.08433734939759
24	1147696	157	0
24	1147696	158	0.05
24	1147696	159	0.10126582278481
24	1147696	160	0.038961038961039
24	1147696	161	0.081395348837209
24	1147696	162	0.045454545454545
24	1147696	163	0.013888888888889
24	1147696	164	0.014925373134328
24	1147696	165	0.057471264367816
24	1147696	166	0.10294117647059
24	1147696	167	0.051948051948052
24	1147696	168	0.08641975308642
24	1147696	169	0
24	1147696	170	0.054794520547945
24	1147696	171	0.033333333333333
24	1147696	172	0.1038961038961
24	1147696	173	0.042857142857143
24	1147696	174	0.03125
24	1147696	175	0.015873015873016
24	1147696	176	0.064102564102564
24	1147696	177	0.064935064935065
24	1147696	178	0.077922077922078
24	1147696	179	0.05
24	1147696	180	0.032258064516129
24	1147696	181	0.04
24	1147696	182	0.031746031746032
24	1147696	183	0.027027027027027
24	1147696	184	0.026315789473684
24	1147696	185	0.047619047619048
24	1147696	186	0.029850746268657
24	1147696	187	0.0625
24	1147696	188	0.042857142857143
24	1147696	189	0.03921568627451
24	1147696	190	0.0625
24	1147696	191	0.072463768115942
24	1147696	192	0.038961038961039
24	1147696	193	0.029411764705882
24	1147696	194	0.027397260273973
24	1147696	195	0.037735849056604
24	1147696	196	0.016129032258065
24	1147696	197	0.015384615384615
24	1147696	198	0.095238095238095
24	1147696	199	0.033333333333333
24	1147696	200	0.047619047619048
24	1147696	201	0
24	1147696	202	0.036363636363636
24	1147696	203	0.037037037037037
24	1147696	204	0.032258064516129
24	1147696	205	0.086206896551724
24	1147696	206	0.022727272727273
24	1147696	207	0.044776119402985
24	1147696	208	0.018867924528302
24	1147696	209	0.07843137254902
24	1147696	210	0.047619047619048
24	1147696	211	0.018181818181818
24	1147696	212	0.080645161290323
24	1147696	213	0.048387096774194
24	1147696	214	0.037037037037037
24	1147696	215	0.05
24	1147696	216	0.045454545454545
24	1147696	217	0.036363636363636
24	1147696	218	0.03448275862069
24	1147696	219	0.083333333333333
24	1147696	220	0.10204081632653
24	1147696	221	0
24	1147696	222	0.021739130434783
24	1147696	223	0.044444444444444
24	1147696	224	0.056603773584906
24	1147696	225	0.049180327868852
24	1147696	226	0.047619047619048
24	1147696	227	0
24	1147696	228	0.017857142857143
24	1147696	229	0.018181818181818
24	1147696	230	0.044444444444444
24	1147696	231	0.018181818181818
24	1147696	232	0
24	1147696	233	0.02
24	1147696	234	0.092592592592593
24	1147696	235	0.040816326530612
24	1147696	236	0.057692307692308
24	1147696	237	0.038461538461538
24	1147696	238	0
24	1147696	239	0.047619047619048
24	1147696	240	0
24	1147696	241	0.10416666666667
24	1147696	242	0.021276595744681
24	1147696	243	0
24	1147696	244	0.020408163265306
24	1147696	245	0.048780487804878
24	1147696	246	0
24	1147696	247	0
24	1147696	248	0.035087719298246
24	1147696	249	0.08695652173913
24	1147696	250	0.071428571428571
24	1147696	251	0
24	1147696	252	0
24	1147696	253	0.083333333333333
24	1147696	254	0
24	1147696	255	0.018867924528302
24	1147696	256	0.055555555555556
24	1147696	257	0.03921568627451
24	1147696	258	0.019607843137255
24	1147696	259	0.043478260869565
24	1147696	260	0.021276595744681
24	1147696	261	0
24	1147696	262	0.018181818181818
24	1147696	263	0.05
24	1147696	264	0
24	1147696	265	0
24	1147696	266	0
24	1147696	267	0.096153846153846
24	1147696	268	0.051724137931034
24	1147696	269	0.025641025641026
24	1147696	270	0.021739130434783
24	1147696	271	0.044444444444444
24	1147696	272	0.085106382978723
24	1147696	273	0.020833333333333
24	1147696	274	0.019607843137255
24	1147696	275	0.054054054054054
24	1147696	276	0.027777777777778
24	1147696	277	0
24	1147696	278	0
24	1147696	279	0.066666666666667
24	1147696	280	0
24	1147696	281	0
24	1147696	282	0.085714285714286
24	1147696	283	0.019230769230769
24	1147696	284	0.03125
24	1147696	285	0
24	1147696	286	0
24	1147696	287	0
24	1147696	288	0
24	1147696	289	0
24	1147696	290	0.03921568627451
24	1147696	291	0
24	1147696	292	0.042553191489362
24	1147696	293	0.023809523809524
24	1147696	294	0
24	1147696	295	0.023255813953488
24	1147696	296	0.027777777777778
24	1147696	297	0.032258064516129
24	1147696	298	0
24	1147696	299	0
24	1147696	300	0.05
24	1147696	301	0.041666666666667
24	1147696	302	0.047619047619048
24	1147696	303	0
24	1147696	304	0
24	1147696	305	0
24	1147696	306	0.035714285714286
24	1147696	307	0.022727272727273
24	1147696	308	0.027027027027027
24	1147696	309	0.12121212121212
24	1147696	310	0.024390243902439
24	1147696	311	0
24	1147696	312	0.025
24	1147696	313	0.017543859649123
24	1147696	314	0
24	1147696	315	0
24	1147696	316	0.051282051282051
24	1147696	317	0.025641025641026
24	1147696	318	0
24	1147696	319	0.023809523809524
24	1147696	320	0
24	1147696	321	0.045454545454545
24	1147696	322	0.023255813953488
24	1147696	323	0.078947368421053
24	1147696	324	0.028571428571429
24	1147696	325	0.023809523809524
24	1147696	326	0.047619047619048
24	1147696	327	0.027777777777778
24	1147696	328	0.045454545454545
24	1147696	329	0
24	1147696	330	0
24	1147696	331	0
24	1147696	332	0
24	1147696	333	0
24	1147696	334	0.037037037037037
24	1147696	335	0
24	1147696	336	0
24	1147696	337	0.023809523809524
24	1147696	338	0
24	1147696	339	0
24	1147696	340	0.046511627906977
24	1147696	341	0
24	1147696	342	0.03448275862069
24	1147696	343	0.025641025641026
24	1147696	344	0
24	1147696	345	0
24	1147696	346	0.03030303030303
24	1147696	347	0.026315789473684
24	1147696	348	0
24	1147696	349	0.03030303030303
24	1147696	350	0.038461538461538
24	1147696	351	0
24	1147696	352	0
24	1147696	353	0.068181818181818
24	1147696	354	0.027777777777778
24	1147696	355	0
24	1147696	356	0.025641025641026
24	1147696	357	0.060606060606061
24	1147696	358	0.029411764705882
24	1147696	359	0.027027027027027
24	1147696	360	0.03448275862069
24	1147696	361	0
24	1147696	362	0.057142857142857
24	1147696	363	0.065217391304348
24	1147696	364	0.068965517241379
24	1147696	365	0
24	1147696	366	0
24	1147696	367	0.027777777777778
24	1147696	368	0.055555555555556
24	1147696	369	0
24	1147696	370	0
24	1147696	371	0
24	1147696	372	0.03448275862069
24	1147696	373	0.032258064516129
24	1147696	374	0
24	1147696	375	0.03125
24	1147696	376	0.032258064516129
24	1147696	377	0
24	1147696	378	0.032258064516129
24	1147696	379	0.026315789473684
24	1147696	380	0.033333333333333
24	1147696	381	0
24	1147696	382	0.029411764705882
24	1147696	383	0.041666666666667
24	1147696	384	0.029411764705882
24	1147696	385	0.071428571428571
24	1147696	386	0.08
24	1147696	387	0.035714285714286
24	1147696	388	0.11111111111111
24	1147696	389	0.032258064516129
24	1147696	390	0.03448275862069
24	1147696	391	0.060606060606061
24	1147696	392	0
24	1147696	393	0
24	1147696	394	0.1
24	1147696	395	0
24	1147696	396	0.027027027027027
24	1147696	397	0.043478260869565
24	1147696	398	0
24	1147696	399	0
24	1147696	400	0.028571428571429
24	1147696	401	0.028571428571429
24	1147696	402	0.0625
24	1147696	403	0.054054054054054
24	1147696	404	0
24	1147696	405	0.051282051282051
24	1147696	406	0.032258064516129
24	1147696	407	0
24	1147696	408	0.03125
24	1147696	409	0.064516129032258
24	1147696	410	0
24	1147696	411	0
24	1147696	412	0
24	1147696	413	0.0625
24	1147696	414	0.03125
24	1147696	415	0
24	1147696	416	0.090909090909091
24	1147696	417	0
24	1147696	418	0
24	1147696	419	0
24	1147696	420	0.03030303030303
24	1147696	421	0.03448275862069
24	1147696	422	0.035714285714286
24	1147696	423	0.10344827586207
24	1147696	424	0.027777777777778
24	1147696	425	0
24	1147696	426	0.026315789473684
24	1147696	427	0.083333333333333
24	1147696	428	0
24	1147696	429	0.03030303030303
24	1147696	430	0.083333333333333
24	1147696	431	0.041666666666667
24	1147696	432	0.08695652173913
24	1147696	433	0.090909090909091
24	1147696	434	0
24	1147696	435	0.027027027027027
24	1147696	436	0
24	1147696	437	0
24	1147696	438	0.027027027027027
24	1147696	439	0
24	1147696	440	0
24	1147696	441	0
24	1147696	442	0.029411764705882
24	1147696	443	0
24	1147696	444	0
24	1147696	445	0
24	1147696	446	0
24	1147696	447	0.032258064516129
24	1147696	448	0
24	1147696	449	0
24	1147696	450	0.03448275862069
24	1147696	451	0
24	1147696	452	0
24	1147696	453	0
24	1147696	454	0.038461538461538
24	1147696	455	0.037037037037037
24	1147696	456	0
24	1147696	457	0.027777777777778
24	1147696	458	0.03030303030303
24	1147696	459	0
24	1147696	460	0.068965517241379
24	1147696	461	0.055555555555556
24	1147696	462	0.11538461538462
24	1147696	463	0
24	1147696	464	0
24	1147696	465	0.032258064516129
24	1147696	466	0
24	1147696	467	0.052631578947368
24	1147696	468	0.028571428571429
24	1147696	469	0.043478260869565
24	1147696	470	0
24	1147696	471	0.1
24	1147696	472	0.033333333333333
24	1147696	473	0
24	1147696	474	0
24	1147696	475	0
24	1147696	476	0
24	1147696	477	0
24	1147696	478	0
24	1147696	479	0
24	1147696	480	0.083333333333333
24	1147696	481	0
24	1147696	482	0
24	1147696	483	0.043478260869565
24	1147696	484	0
24	1147696	485	0
24	1147696	486	0
24	1147696	487	0
24	1147696	488	0
24	1147696	489	0
24	1147696	490	0.03125
24	1147696	491	0
24	1147696	492	0
24	1147696	493	0
24	1147696	494	0
24	1147696	495	0.041666666666667
24	1147696	496	0
24	1147696	497	0
24	1147696	498	0
24	1147696	499	0
24	1147696	500	0
24	1147696	501	0
24	1147696	502	0
24	1147696	503	0.029411764705882
24	1147696	504	0
24	1147696	505	0.052631578947368
24	1147696	506	0.055555555555556
24	1147696	507	0
24	1147696	508	0
24	1147696	509	0.035714285714286
24	1147696	510	0.032258064516129
24	1147696	511	0
24	1147696	512	0
24	1147696	513	0
24	1147696	514	0.04
24	1147696	515	0.058823529411765
24	1147696	516	0
24	1147696	517	0
24	1147696	518	0
24	1147696	519	0.0625
24	1147696	520	0
24	1147696	521	0
24	1147696	522	0
24	1147696	523	0
24	1147696	524	0.035714285714286
24	1147696	525	0
24	1147696	526	0
24	1147696	527	0.03448275862069
24	1147696	528	0
24	1147696	529	0
24	1147696	530	0
24	1147696	531	0
24	1147696	532	0.032258064516129
24	1147696	533	0.10344827586207
24	1147696	534	0.03125
24	1147696	535	0
24	1147696	536	0
24	1147696	537	0
24	1147696	538	0
24	1147696	539	0
24	1147696	540	0
24	1147696	541	0
24	1147696	542	0
24	1147696	543	0
24	1147696	544	0
24	1147696	545	0.03030303030303
24	1147696	546	0
24	1147696	547	0.066666666666667
24	1147696	548	0
24	1147696	549	0
24	1147696	550	0
24	1147696	551	0.074074074074074
24	1147696	552	0
24	1147696	553	0
24	1147696	554	0
24	1147696	555	0
24	1147696	556	0
24	1147696	557	0
24	1147696	558	0.0625
24	1147696	559	0
24	1147696	560	0
24	1147696	561	0
24	1147696	562	0.037037037037037
24	1147696	563	0.071428571428571
24	1147696	564	0
24	1147696	565	0
24	1147696	566	0
24	1147696	567	0
24	1147696	568	0.05
24	1147696	569	0
24	1147696	570	0.047619047619048
24	1147696	571	0
24	1147696	572	0
24	1147696	573	0.041666666666667
24	1147696	574	0
24	1147696	575	0.041666666666667
24	1147696	576	0
24	1147696	577	0
24	1147696	578	0
24	1147696	579	0
24	1147696	580	0.11111111111111
24	1147696	581	0
24	1147696	582	0
24	1147696	583	0.037037037037037
24	1147696	584	0.052631578947368
24	1147696	585	0.083333333333333
24	1147696	586	0
24	1147696	587	0.037037037037037
24	1147696	588	0
24	1147696	589	0
24	1147696	590	0.043478260869565
24	1147696	591	0
24	1147696	592	0
24	1147696	593	0.047619047619048
24	1147696	594	0
24	1147696	595	0
24	1147696	596	0.05
24	1147696	597	0
24	1147696	598	0.12
24	1147696	599	0
24	1147696	600	0
24	1147696	601	0
24	1147696	602	0
24	1147696	603	0
24	1147696	604	0.058823529411765
24	1147696	605	0
24	1147696	606	0
24	1147696	607	0
24	1147696	608	0.058823529411765
24	1147696	609	0
24	1147696	610	0
24	1147696	611	0
24	1147696	612	0
24	1147696	613	0
24	1147696	614	0
24	1147696	615	0.047619047619048
24	1147696	616	0
24	1147696	617	0
24	1147696	618	0
24	1147696	619	0
24	1147696	620	0
24	1147696	621	0.047619047619048
24	1147696	622	0.090909090909091
24	1147696	623	0
24	1147696	624	0
24	1147696	625	0
24	1147696	626	0.052631578947368
24	1147696	627	0.055555555555556
24	1147696	628	0
24	1147696	629	0
24	1147696	630	0
24	1147696	631	0
24	1147696	632	0
24	1147696	633	0
24	1147696	634	0
24	1147696	635	0
24	1147696	636	0
24	1147696	637	0
24	1147696	638	0.076923076923077
24	1147696	639	0
24	1147696	640	0
24	1147696	641	0
24	1147696	642	0
24	1147696	643	0.058823529411765
24	1147696	644	0
24	1147696	645	0
24	1147696	646	0
24	1147696	647	0.058823529411765
24	1147696	648	0
24	1147696	649	0
24	1147696	650	0
24	1147696	651	0
24	1147696	652	0
24	1147696	653	0.047619047619048
24	1147696	654	0
24	1147696	655	0
24	1147696	656	0.047619047619048
24	1147696	657	0
24	1147696	658	0
24	1147696	659	0
24	1147696	660	0
24	1147696	661	0
24	1147696	662	0
24	1147696	663	0
24	1147696	664	0
24	1147696	665	0.041666666666667
24	1147696	666	0
24	1147696	667	0
24	1147696	668	0
24	1147696	669	0
24	1147696	670	0
24	1147696	671	0
24	1147696	672	0
24	1147696	673	0.04
24	1147696	674	0
24	1147696	675	0
24	1147696	676	0
24	1147696	677	0
24	1147696	678	0
24	1147696	679	0
24	1147696	680	0
24	1147696	681	0
24	1147696	682	0
24	1147696	683	0
24	1147696	684	0
24	1147696	685	0.0625
24	1147696	686	0.058823529411765
24	1147696	687	0
24	1147696	688	0
24	1147696	689	0
24	1147696	690	0
24	1147696	691	0
24	1147696	692	0.041666666666667
24	1147696	693	0
24	1147696	694	0
24	1147696	695	0
24	1147696	696	0
24	1147696	697	0
24	1147696	698	0
24	1147696	699	0
24	1147696	700	0.066666666666667
24	1147696	701	0
24	1147696	702	0
24	1147696	703	0
24	1147696	704	0
24	1147696	705	0
24	1147696	706	0
24	1147696	707	0
24	1147696	708	0
24	1147696	709	0
24	1147696	710	0
24	1147696	711	0
24	1147696	712	0
24	1147696	713	0
24	1147696	714	0
24	1147696	715	0.058823529411765
24	1147696	716	0
24	1147696	717	0
24	1147696	718	0
24	1147696	719	0.047619047619048
24	1147696	720	0.058823529411765
24	1147696	721	0
24	1147696	722	0.055555555555556
24	1147696	723	0
24	1147696	724	0
24	1147696	725	0
24	1147696	726	0.15789473684211
24	1147696	727	0
24	1147696	728	0
24	1147696	729	0
24	1147696	730	0
24	1147696	731	0
24	1147696	732	0
24	1147696	733	0
24	1147696	734	0
24	1147696	735	0
24	1147696	736	0
24	1147696	737	0.066666666666667
24	1147696	738	0
24	1147696	739	0
24	1147696	740	0
24	1147696	741	0
24	1147696	742	0
24	1147696	743	0
24	1147696	744	0
24	1147696	745	0
24	1147696	746	0
24	1147696	747	0
24	1147696	748	0
24	1147696	749	0
24	1147696	750	0
vector 25  simple_scenario_cache_in_the_core_network.node[1].content_store  hit_node[1]  ETV
25	1147696	1	0
25	1147696	2	-nan
25	1147696	3	-nan
25	1147696	4	0
25	1147696	5	-nan
25	1147696	6	-nan
25	1147696	7	-nan
25	1147696	8	-nan
25	1147696	9	-nan
25	1147696	10	-nan
25	1147696	11	-nan
25	1147696	12	0
25	1147696	13	0
25	1147696	14	-nan
25	1147696	15	0
25	1147696	16	0
25	1147696	17	0
25	1147696	18	0
25	1147696	19	0
25	1147696	20	-nan
25	1147696	21	0
25	1147696	22	-nan
25	1147696	23	-nan
25	1147696	24	0
25	1147696	25	0
25	1147696	26	-nan
25	1147696	27	-nan
25	1147696	28	-nan
25	1147696	29	-nan
25	1147696	30	0
25	1147696	31	-nan
25	1147696	32	0
25	1147696	33	-nan
25	1147696	34	0
25	1147696	35	-nan
25	1147696	36	-nan
25	1147696	37	0
25	1147696	38	-nan
25	1147696	39	-nan
25	1147696	40	0
25	1147696	41	0
25	1147696	42	-nan
25	1147696	43	0
25	1147696	44	-nan
25	1147696	45	-nan
25	1147696	46	-nan
25	1147696	47	-nan
25	1147696	48	-nan
25	1147696	49	0
25	1147696	50	-nan
25	1147696	51	0
25	1147696	52	-nan
25	1147696	53	-nan
25	1147696	54	-nan
25	1147696	55	-nan
25	1147696	56	0
25	1147696	57	-nan
25	1147696	58	0
25	1147696	59	0
25	1147696	60	-nan
25	1147696	61	-nan
25	1147696	62	0
25	1147696	63	-nan
25	1147696	64	0
25	1147696	65	-nan
25	1147696	66	0
25	1147696	67	0
25	1147696	68	0
25	1147696	69	0
25	1147696	70	0
25	1147696	71	-nan
25	1147696	72	-nan
25	1147696	73	0
25	1147696	74	0
25	1147696	75	0
25	1147696	76	-nan
25	1147696	77	-nan
25	1147696	78	0
25	1147696	79	-nan
25	1147696	80	0
25	1147696	81	0
25	1147696	82	-nan
25	1147696	83	0
25	1147696	84	-nan
25	1147696	85	-nan
25	1147696	86	-nan
25	1147696	87	-nan
25	1147696	88	-nan
25	1147696	89	-nan
25	1147696	90	0
25	1147696	91	-nan
25	1147696	92	-nan
25	1147696	93	0
25	1147696	94	0
25	1147696	95	-nan
25	1147696	96	0
25	1147696	97	0
25	1147696	98	-nan
25	1147696	99	-nan
25	1147696	100	0
25	1147696	101	-nan
25	1147696	102	0
25	1147696	103	0
25	1147696	104	-nan
25	1147696	105	0
25	1147696	106	0
25	1147696	107	0
25	1147696	108	-nan
25	1147696	109	-nan
25	1147696	110	0
25	1147696	111	-nan
25	1147696	112	0
25	1147696	113	0
25	1147696	114	0
25	1147696	115	0
25	1147696	116	0
25	1147696	117	-nan
25	1147696	118	0
25	1147696	119	-nan
25	1147696	120	0
25	1147696	121	-nan
25	1147696	122	-nan
25	1147696	123	-nan
25	1147696	124	-nan
25	1147696	125	-nan
25	1147696	126	0
25	1147696	127	-nan
25	1147696	128	-nan
25	1147696	129	-nan
25	1147696	130	-nan
25	1147696	131	0
25	1147696	132	-nan
25	1147696	133	-nan
25	1147696	134	0
25	1147696	135	0
25	1147696	136	-nan
25	1147696	137	0
25	1147696	138	0
25	1147696	139	0
25	1147696	140	0
25	1147696	141	-nan
25	1147696	142	-nan
25	1147696	143	0
25	1147696	144	0
25	1147696	145	-nan
25	1147696	146	0
25	1147696	147	-nan
25	1147696	148	-nan
25	1147696	149	-nan
25	1147696	150	-nan
25	1147696	151	0
25	1147696	152	0
25	1147696	153	0
25	1147696	154	-nan
25	1147696	155	0
25	1147696	156	-nan
25	1147696	157	-nan
25	1147696	158	-nan
25	1147696	159	0
25	1147696	160	-nan
25	1147696	161	0
25	1147696	162	0
25	1147696	163	-nan
25	1147696	164	0
25	1147696	165	-nan
25	1147696	166	-nan
25	1147696	167	0
25	1147696	168	0
25	1147696	169	-nan
25	1147696	170	0
25	1147696	171	-nan
25	1147696	172	0
25	1147696	173	-nan
25	1147696	174	0
25	1147696	175	-nan
25	1147696	176	0
25	1147696	177	-nan
25	1147696	178	0
25	1147696	179	0
25	1147696	180	0
25	1147696	181	-nan
25	1147696	182	0
25	1147696	183	-nan
25	1147696	184	0
25	1147696	185	-nan
25	1147696	186	0
25	1147696	187	0
25	1147696	188	0
25	1147696	189	0
25	1147696	190	0
25	1147696	191	-nan
25	1147696	192	0
25	1147696	193	0
25	1147696	194	-nan
25	1147696	195	0
25	1147696	196	0
25	1147696	197	0
25	1147696	198	-nan
25	1147696	199	0
25	1147696	200	0
25	1147696	201	-nan
25	1147696	202	0
25	1147696	203	-nan
25	1147696	204	0
25	1147696	205	0
25	1147696	206	-nan
25	1147696	207	-nan
25	1147696	208	0
25	1147696	209	0
25	1147696	210	0
25	1147696	211	-nan
25	1147696	212	-nan
25	1147696	213	0
25	1147696	214	0
25	1147696	215	0
25	1147696	216	0
25	1147696	217	0
25	1147696	218	-nan
25	1147696	219	0
25	1147696	220	-nan
25	1147696	221	0
25	1147696	222	0
25	1147696	223	0
25	1147696	224	-nan
25	1147696	225	-nan
25	1147696	226	-nan
25	1147696	227	0
25	1147696	228	0
25	1147696	229	-nan
25	1147696	230	-nan
25	1147696	231	-nan
25	1147696	232	-nan
25	1147696	233	0
25	1147696	234	0
25	1147696	235	0
25	1147696	236	-nan
25	1147696	237	-nan
25	1147696	238	0
25	1147696	239	-nan
25	1147696	240	0
25	1147696	241	0
25	1147696	242	-nan
25	1147696	243	0
25	1147696	244	-nan
25	1147696	245	-nan
25	1147696	246	-nan
25	1147696	247	-nan
25	1147696	248	0
25	1147696	249	0
25	1147696	250	0
25	1147696	251	-nan
25	1147696	252	-nan
25	1147696	253	-nan
25	1147696	254	0
25	1147696	255	-nan
25	1147696	256	-nan
25	1147696	257	-nan
25	1147696	258	-nan
25	1147696	259	0
25	1147696	260	0
25	1147696	261	-nan
25	1147696	262	-nan
25	1147696	263	0
25	1147696	264	0
25	1147696	265	0
25	1147696	266	-nan
25	1147696	267	-nan
25	1147696	268	0
25	1147696	269	-nan
25	1147696	270	-nan
25	1147696	271	-nan
25	1147696	272	-nan
25	1147696	273	-nan
25	1147696	274	0
25	1147696	275	0
25	1147696	276	0
25	1147696	277	-nan
25	1147696	278	0
25	1147696	279	-nan
25	1147696	280	0
25	1147696	281	-nan
25	1147696	282	-nan
25	1147696	283	0
25	1147696	284	0
25	1147696	285	0
25	1147696	286	-nan
25	1147696	287	0
25	1147696	288	0
25	1147696	289	-nan
25	1147696	290	-nan
25	1147696	291	-nan
25	1147696	292	-nan
25	1147696	293	0
25	1147696	294	-nan
25	1147696	295	0
25	1147696	296	0
25	1147696	297	0
25	1147696	298	0
25	1147696	299	-nan
25	1147696	300	-nan
25	1147696	301	-nan
25	1147696	302	0
25	1147696	303	-nan
25	1147696	304	0
25	1147696	305	0
25	1147696	306	-nan
25	1147696	307	-nan
25	1147696	308	-nan
25	1147696	309	-nan
25	1147696	310	-nan
25	1147696	311	-nan
25	1147696	312	0
25	1147696	313	0
25	1147696	314	-nan
25	1147696	315	-nan
25	1147696	316	-nan
25	1147696	317	-nan
25	1147696	318	-nan
25	1147696	319	-nan
25	1147696	320	-nan
25	1147696	321	-nan
25	1147696	322	-nan
25	1147696	323	-nan
25	1147696	324	0
25	1147696	325	0
25	1147696	326	0
25	1147696	327	0
25	1147696	328	-nan
25	1147696	329	-nan
25	1147696	330	-nan
25	1147696	331	0
25	1147696	332	-nan
25	1147696	333	-nan
25	1147696	334	-nan
25	1147696	335	-nan
25	1147696	336	-nan
25	1147696	337	-nan
25	1147696	338	-nan
25	1147696	339	0
25	1147696	340	0
25	1147696	341	0
25	1147696	342	0
25	1147696	343	-nan
25	1147696	344	-nan
25	1147696	345	0
25	1147696	346	-nan
25	1147696	347	0
25	1147696	348	0
25	1147696	349	-nan
25	1147696	350	0
25	1147696	351	-nan
25	1147696	352	0
25	1147696	353	-nan
25	1147696	354	0
25	1147696	355	0
25	1147696	356	0
25	1147696	357	0
25	1147696	358	-nan
25	1147696	359	-nan
25	1147696	360	-nan
25	1147696	361	0
25	1147696	362	-nan
25	1147696	363	0
25	1147696	364	-nan
25	1147696	365	0
25	1147696	366	0
25	1147696	367	0
25	1147696	368	0
25	1147696	369	-nan
25	1147696	370	-nan
25	1147696	371	-nan
25	1147696	372	0
25	1147696	373	-nan
25	1147696	374	0
25	1147696	375	0
25	1147696	376	-nan
25	1147696	377	-nan
25	1147696	378	-nan
25	1147696	379	0
25	1147696	380	-nan
25	1147696	381	-nan
25	1147696	382	0
25	1147696	383	-nan
25	1147696	384	0
25	1147696	385	-nan
25	1147696	386	-nan
25	1147696	387	0
25	1147696	388	0
25	1147696	389	-nan
25	1147696	390	-nan
25	1147696	391	0
25	1147696	392	-nan
25	1147696	393	-nan
25	1147696	394	-nan
25	1147696	395	-nan
25	1147696	396	-nan
25	1147696	397	-nan
25	1147696	398	0
25	1147696	399	0
25	1147696	400	-nan
25	1147696	401	0
25	1147696	402	-nan
25	1147696	403	0
25	1147696	404	0
25	1147696	405	-nan
25	1147696	406	-nan
25	1147696	407	-nan
25	1147696	408	-nan
25	1147696	409	-nan
25	1147696	410	0
25	1147696	411	-nan
25	1147696	412	-nan
25	1147696	413	-nan
25	1147696	414	0
25	1147696	415	0
25	1147696	416	-nan
25	1147696	417	-nan
25	1147696	418	0
25	1147696	419	-nan
25	1147696	420	-nan
25	1147696	421	-nan
25	1147696	422	0
25	1147696	423	0
25	1147696	424	0
25	1147696	425	-nan
25	1147696	426	0
25	1147696	427	0
25	1147696	428	0
25	1147696	429	0
25	1147696	430	0
25	1147696	431	0
25	1147696	432	-nan
25	1147696	433	-nan
25	1147696	434	-nan
25	1147696	435	0
25	1147696	436	0
25	1147696	437	-nan
25	1147696	438	-nan
25	1147696	439	-nan
25	1147696	440	0
25	1147696	441	-nan
25	1147696	442	0
25	1147696	443	-nan
25	1147696	444	0
25	1147696	445	-nan
25	1147696	446	-nan
25	1147696	447	-nan
25	1147696	448	0
25	1147696	449	-nan
25	1147696	450	0
25	1147696	451	0
25	1147696	452	-nan
25	1147696	453	0
25	1147696	454	-nan
25	1147696	455	0
25	1147696	456	0
25	1147696	457	-nan
25	1147696	458	0
25	1147696	459	0
25	1147696	460	0
25	1147696	461	0
25	1147696	462	0
25	1147696	463	0
25	1147696	464	0
25	1147696	465	0
25	1147696	466	0
25	1147696	467	-nan
25	1147696	468	0
25	1147696	469	-nan
25	1147696	470	-nan
25	1147696	471	0
25	1147696	472	-nan
25	1147696	473	-nan
25	1147696	474	-nan
25	1147696	475	0
25	1147696	476	0
25	1147696	477	-nan
25	1147696	478	-nan
25	1147696	479	-nan
25	1147696	480	-nan
25	1147696	481	0
25	1147696	482	-nan
25	1147696	483	0
25	1147696	484	-nan
25	1147696	485	0
25	1147696	486	0
25	1147696	487	0
25	1147696	488	0
25	1147696	489	-nan
25	1147696	490	-nan
25	1147696	491	-nan
25	1147696	492	-nan
25	1147696	493	-nan
25	1147696	494	0
25	1147696	495	-nan
25	1147696	496	0
25	1147696	497	-nan
25	1147696	498	0
25	1147696	499	-nan
25	1147696	500	0
25	1147696	501	-nan
25	1147696	502	-nan
25	1147696	503	0
25	1147696	504	0
25	1147696	505	0
25	1147696	506	-nan
25	1147696	507	-nan
25	1147696	508	-nan
25	1147696	509	0
25	1147696	510	0
25	1147696	511	-nan
25	1147696	512	0
25	1147696	513	0
25	1147696	514	-nan
25	1147696	515	0
25	1147696	516	0
25	1147696	517	0
25	1147696	518	-nan
25	1147696	519	0
25	1147696	520	-nan
25	1147696	521	0
25	1147696	522	-nan
25	1147696	523	0
25	1147696	524	-nan
25	1147696	525	-nan
25	1147696	526	0
25	1147696	527	0
25	1147696	528	-nan
25	1147696	529	0
25	1147696	530	-nan
25	1147696	531	0
25	1147696	532	-nan
25	1147696	533	0
25	1147696	534	0
25	1147696	535	0
25	1147696	536	0
25	1147696	537	-nan
25	1147696	538	-nan
25	1147696	539	0
25	1147696	540	-nan
25	1147696	541	0
25	1147696	542	-nan