file 463846124 1397827620                                       
version 2
run General-222-20140418-15:25:21-1816
attr D lce
attr F nrr
attr R lru
attr a 0.8
attr configname General
attr csize 10
attr ctlg 10^8
attr datetime 20140418-15:25:21
attr experiment General
attr inifile omnetpp.ini
attr iterationvars "$net=simple_scenario, $rep=1, $priceratiovalue=10, $a=0.8, $ctlg=10^8, $F=nrr, $ttl=1000, $D=lce, $R=lru, $csize=10"
attr iterationvars2 "$net=simple_scenario, $rep=1, $priceratiovalue=10, $a=0.8, $ctlg=10^8, $F=nrr, $ttl=1000, $D=lce, $R=lru, $csize=10, $repetition=0"
attr measurement "$net=simple_scenario, $rep=1, $priceratiovalue=10, $a=0.8, $ctlg=10^8, $F=nrr, $ttl=1000, $D=lce, $R=lru, $csize=10"
attr net simple_scenario
attr network networks.${net=simple_scenario}_network
attr priceratiovalue 10
attr processid 1816
attr rep 1
attr repetition 0
attr replication #0
attr resultdir results
attr runnumber 222
attr seedset 1
attr ttl 1000

vector 0  simple_scenario_network.node[0].content_store  hit_node[0]  ETV
0	969 15138748 1314352 1314352 1 699051 699051 0 0.056768558951965 -nan -nan
0	15139717 15747645 1314352 1314352 699052 1398102 699051 0 0 -nan -nan
0	30887362 16058727 1314352 1314352 1398103 2097153 699051 0 0 -nan -nan
0	46946089 16062792 1314352 1314352 2097154 2796204 699051 0 0 -nan -nan
0	63008881 15927072 1314352 1314352 2796205 3489213 693009 0 0 -nan -nan
vector 1  simple_scenario_network.node[1].content_store  hit_node[1]  ETV
1	78936027 15202850 1314352 1314352 1 699051 699051 0 0.1 -nan -nan
1	94138877 15762234 1314352 1314352 699052 1398102 699051 0 0 -nan -nan
1	109901111 16068366 1314352 1314352 1398103 2097153 699051 0 0 -nan -nan
1	125969477 16070514 1314352 1314352 2097154 2796204 699051 0 0 -nan -nan
1	142039991 15933249 1314352 1314352 2796205 3489213 693009 0 0 -nan -nan
vector 2  simple_scenario_network.node[2].content_store  hit_node[2]  ETV
2	157973314 15204012 1314352 1314352 1 699051 699051 0 0.2 -nan -nan
2	173177326 15762636 1314352 1314352 699052 1398102 699051 0 0 -nan -nan
2	188939962 16068534 1314352 1314352 1398103 2097153 699051 0 0 -nan -nan
2	205008496 16070451 1314352 1314352 2097154 2796204 699051 0 0 -nan -nan
2	221078947 15933030 1314352 1314352 2796205 3489213 693009 0 0 -nan -nan
vector 3  simple_scenario_network.node[3].content_store  hit_node[3]  ETV
3	237012051 15202671 1314352 1314352 1 699051 699051 0 0 -nan -nan
3	252214722 15762234 1314352 1314352 699052 1398102 699051 0 0 -nan -nan
3	267976956 16068366 1314352 1314352 1398103 2097153 699051 0 0 -nan -nan
3	284045322 16070514 1314352 1314352 2097154 2796204 699051 0 0 -nan -nan
3	300115836 15933249 1314352 1314352 2796205 3489213 693009 0 0 -nan -nan
vector 4  simple_scenario_network.node[4].content_store  hit_node[4]  ETV
4	316049159 15203751 1314352 1314352 1 699051 699051 0 0 -nan -nan
4	331252910 15762636 1314352 1314352 699052 1398102 699051 0 0 -nan -nan
4	347015546 16068534 1314352 1314352 1398103 2097153 699051 0 0 -nan -nan
4	363084080 16070451 1314352 1314352 2097154 2796204 699051 0 0 -nan -nan
4	379154531 15933030 1314352 1314352 2796205 3489213 693009 0 0 -nan -nan
vector 5  simple_scenario_network.client[0]  hdistance[0]  ETV
5	395087624 13254327 1314352 1314352 1 699051 699051 0 3 129601.43679815 388772.80086786
5	408341951 13681239 1314352 1314352 699052 1398102 699051 0 3 29579.881661368 88739.290135884
5	422023190 13981337 1314352 1314352 1398103 2097153 699051 0 3 19445.968172957 58337.809082051
5	436004527 13981267 1314352 1314352 2097154 2796204 699051 0 3 15380.975328232 46142.852003449
5	449985794 13860330 1314352 1314352 2796205 3489213 693009 0 3 12134.984635809 36404.907836388
