version 2
run General-1-20150629-10:18:07-17476
attr D lce
attr F spr
attr R lru_repr
attr a 1
attr configname General
attr datetime 20150629-10:18:07
attr experiment General
attr inifile omnetpp.ini
attr iterationvars "$net=video_simple_scenario, $rep=0, $a=1, $F=spr, $ttl=1000, $D=lce, $R=lru_repr, $window=60, $variance=0.05, $mytime=1800"
attr iterationvars2 "$net=video_simple_scenario, $rep=0, $a=1, $F=spr, $ttl=1000, $D=lce, $R=lru_repr, $window=60, $variance=0.05, $mytime=1800, $repetition=0"
attr measurement "$net=video_simple_scenario, $rep=0, $a=1, $F=spr, $ttl=1000, $D=lce, $R=lru_repr, $window=60, $variance=0.05, $mytime=1800"
attr mytime 1800
attr net video_simple_scenario
attr network networks.${net=video_simple_scenario}_network
attr processid 17476
attr rep 0
attr repetition 0
attr replication #0
attr resultdir results
attr runnumber 1
attr seedset 0
attr ttl 1000
attr variance 0.05
attr window 60

vector 0  video_simple_scenario_network.node[0].content_store  hit_node[0]  ETV
0	604925	1	0.98076191511331
0	604925	2	0.84269436321468
0	604925	3	0.68968926553672
0	604925	4	0.5925727548652
0	604925	5	0.50486486486486
0	604925	6	0.45044110015568
0	604925	7	0.40297582145071
0	604925	8	0.37452537107352
0	604925	9	0.34504913076342
0	604925	10	0.3102541630149
0	604925	11	0.29134615384615
0	604925	12	0.28677642060542
0	604925	13	0.25459770114943
0	604925	14	0.23831168831169
0	604925	15	0.23244717109748
0	604925	16	0.20618556701031
0	604925	17	0.21892103205629
0	604925	18	0.21559268098648
0	604925	19	0.20253164556962
0	604925	20	0.18755803156917
0	604925	21	0.18478260869565
0	604925	22	0.17465069860279
0	604925	23	0.16849015317287
0	604925	24	0.1501210653753
0	604925	25	0.1495673671199
0	604925	26	0.15789473684211
0	604925	27	0.1558784676354
0	604925	28	0.1421188630491
0	604925	29	0.12894375857339
0	604925	30	0.10793650793651
0	604925	31	0.13762811127379
0	604925	32	0.12057877813505
0	604925	33	0.13664596273292
0	604925	34	0.13441654357459
0	604925	35	0.12007168458781
0	604925	36	0.11330935251799
0	604925	37	0.12289562289562
0	604925	38	0.10505836575875
0	604925	39	0.1113074204947
0	604925	40	0.13232514177694
0	604925	41	0.085828343313373
0	604925	42	0.12260536398467
0	604925	43	0.098989898989899
0	604925	44	0.11728395061728
0	604925	45	0.081424936386768
0	604925	46	0.088167053364269
0	604925	47	0.1002331002331
0	604925	48	0.10926365795724
0	604925	49	0.0880195599022
0	604925	50	0.11835748792271
0	604925	51	0.092909535452323
0	604925	52	0.0925
0	604925	53	0.085051546391753
0	604925	54	0.060790273556231
0	604925	55	0.058495821727019
0	604925	56	0.083798882681564
0	604925	57	0.087628865979381
0	604925	58	0.081460674157303
0	604925	59	0.097142857142857
0	604925	60	0.072046109510086
0	604925	61	0.059405940594059
0	604925	62	0.073089700996678
0	604925	63	0.073015873015873
0	604925	64	0.065934065934066
0	604925	65	0.070234113712375
0	604925	66	0.060283687943262
0	604925	67	0.09480122324159
0	604925	68	0.075
0	604925	69	0.064748201438849
0	604925	70	0.07641196013289
0	604925	71	0.082758620689655
0	604925	72	0.052631578947368
0	604925	73	0.076388888888889
0	604925	74	0.055172413793103
0	604925	75	0.072649572649573
0	604925	76	0.063291139240506
vector 1  video_simple_scenario_network.node[0].proactive_component  hdistance[0].proactive_component  ETV
1	604925	1	1
1	604925	2	1
1	604925	3	1
1	604925	4	1
1	604925	5	1
1	604925	6	1
1	604925	7	1
1	604925	8	1
1	604925	9	1
1	604925	10	1
1	604925	11	1
1	604925	12	1
1	604925	13	1
1	604925	14	1
1	604925	15	1
1	604925	16	1
1	604925	17	1
1	604925	18	1
1	604925	19	1
1	604925	20	1
1	604925	21	1
1	604925	22	1
1	604925	23	1
1	604925	24	1
1	604925	25	1
1	604925	26	1
1	604925	27	1
1	604925	28	1
1	604925	29	1
1	604925	30	1
1	604925	31	1
1	604925	32	1
1	604925	33	1
1	604925	34	1
1	604925	35	1
1	604925	36	1
1	604925	37	1
1	604925	38	1
1	604925	39	1
1	604925	40	1
1	604925	41	1
1	604925	42	1
1	604925	43	1
1	604925	44	1
1	604925	45	1
1	604925	46	1
1	604925	47	1
1	604925	48	1
1	604925	49	1
1	604925	50	1
1	604925	51	1
1	604925	52	1
1	604925	53	1
1	604925	54	1
1	604925	55	1
1	604925	56	1
1	604925	57	1
1	604925	58	1
1	604925	59	1
1	604925	60	1
1	604925	61	1
1	604925	62	1
1	604925	63	1
1	604925	64	1
1	604925	65	1
1	604925	66	1
1	604925	67	1
1	604925	68	1
1	604925	69	1
1	604925	70	1
1	604925	71	1
1	604925	72	1
1	604925	73	1
1	604925	74	1
1	604925	75	1
1	604925	76	1
vector 2  video_simple_scenario_network.client[0]  hdistance[0].real  ETV
2	604925	1	0.0097668038408779
2	604925	2	0.087564144557266
2	604925	3	0.19621399176955
2	604925	4	0.28485240249946
2	604925	5	0.37248051599033
2	604925	6	0.43397456798174
2	604925	7	0.49592865451725
2	604925	8	0.52969224100563
2	604925	9	0.56565176022836
2	604925	10	0.61311475409836
2	604925	11	0.63842482100239
2	604925	12	0.64566929133858
2	604925	13	0.69064245810056
2	604925	14	0.71260767423649
2	604925	15	0.71677740863787
2	604925	16	0.75481611208406
2	604925	17	0.73831775700935
2	604925	18	0.74239543726236
2	604925	19	0.75903614457831
2	604925	20	0.78067318132465
2	604925	21	0.78281068524971
2	604925	22	0.79556074766355
2	604925	23	0.80432020330369
2	604925	24	0.82825484764543
2	604925	25	0.82933709449929
2	604925	26	0.81804733727811
2	604925	27	0.82066869300912
2	604925	28	0.83847283406755
2	604925	29	0.85471406491499
2	604925	30	0.88028169014085
2	604925	31	0.84488448844884
2	604925	32	0.86631016042781
2	604925	33	0.84507042253521
2	604925	34	0.84808013355593
2	604925	35	0.86626746506986
2	604925	36	0.87425149700599
2	604925	37	0.8622641509434
2	604925	38	0.88412017167382
2	604925	39	0.8759842519685
2	604925	40	0.85010706638116
2	604925	41	0.90712742980562
2	604925	42	0.86266094420601
2	604925	43	0.89086859688196
2	604925	44	0.86836027713626
2	604925	45	0.91160220994475
2	604925	46	0.90355329949239
2	604925	47	0.88946015424165
2	604925	48	0.87926509186352
2	604925	49	0.90425531914894
2	604925	50	0.86792452830189
2	604925	51	0.89784946236559
2	604925	52	0.89890710382514
2	604925	53	0.90782122905028
2	604925	54	0.93527508090615
2	604925	55	0.93805309734513
2	604925	56	0.90936555891239
2	604925	57	0.9047619047619
2	604925	58	0.91238670694864
2	604925	59	0.89375
2	604925	60	0.9223602484472
2	604925	61	0.93706293706294
2	604925	62	0.92142857142857
2	604925	63	0.92150170648464
2	604925	64	0.9296875
2	604925	65	0.925
2	604925	66	0.9365671641791
2	604925	67	0.89666666666667
2	604925	68	0.91984732824427
2	604925	69	0.93103448275862
2	604925	70	0.91814946619217
2	604925	71	0.91078066914498
2	604925	72	0.94444444444444
2	604925	73	0.91760299625468
2	604925	74	0.94160583941606
2	604925	75	0.92165898617512
2	604925	76	0.93273542600897
