version 2
run General-0-20150629-10:18:07-17475
attr D lce
attr F spr
attr R lru_repr
attr a 1
attr configname General
attr datetime 20150629-10:18:07
attr experiment General
attr inifile omnetpp.ini
attr iterationvars "$net=video_simple_scenario, $rep=0, $a=1, $F=spr, $ttl=1000, $D=lce, $R=lru_repr, $window=60, $variance=0.05, $mytime=180"
attr iterationvars2 "$net=video_simple_scenario, $rep=0, $a=1, $F=spr, $ttl=1000, $D=lce, $R=lru_repr, $window=60, $variance=0.05, $mytime=180, $repetition=0"
attr measurement "$net=video_simple_scenario, $rep=0, $a=1, $F=spr, $ttl=1000, $D=lce, $R=lru_repr, $window=60, $variance=0.05, $mytime=180"
attr mytime 180
attr net video_simple_scenario
attr network networks.${net=video_simple_scenario}_network
attr processid 17475
attr rep 0
attr repetition 0
attr replication #0
attr resultdir results
attr runnumber 0
attr seedset 0
attr ttl 1000
attr variance 0.05
attr window 60

vector 0  video_simple_scenario_network.node[0].content_store  hit_node[0]  ETV
0	78913	1	0.97818974918212
0	78913	2	0.84163346613546
0	78913	3	0.68097281831187
0	78913	4	0.62051282051282
0	78913	5	0.54291417165669
0	78913	6	0.45224719101124
0	78913	7	0.37049180327869
0	78913	8	0.3556338028169
0	78913	9	0.34831460674157
0	78913	10	0.28508771929825
0	78913	11	0.27222222222222
0	78913	12	0.2568306010929
0	78913	13	0.23837209302326
0	78913	14	0.27922077922078
0	78913	15	0.23021582733813
0	78913	16	0.17518248175182
0	78913	17	0.19565217391304
0	78913	18	0.19354838709677
0	78913	19	0.175
0	78913	20	0.18072289156627
0	78913	21	0.20833333333333
0	78913	22	0.18965517241379
0	78913	23	0.16666666666667
0	78913	24	0.17045454545455
0	78913	25	0.19047619047619
0	78913	26	0.14084507042254
0	78913	27	0.14285714285714
0	78913	28	0.14117647058824
0	78913	29	0.12820512820513
0	78913	30	0.076923076923077
0	78913	31	0.16176470588235
0	78913	32	0.18032786885246
0	78913	33	0.13698630136986
0	78913	34	0.1304347826087
0	78913	35	0.16326530612245
0	78913	36	0.076923076923077
0	78913	37	0.16666666666667
0	78913	38	0.068965517241379
0	78913	39	0.16883116883117
0	78913	40	0.10204081632653
0	78913	41	0.13846153846154
0	78913	42	0.11764705882353
0	78913	43	0.18367346938776
0	78913	44	0.12857142857143
0	78913	45	0.03125
0	78913	46	0.1063829787234
0	78913	47	0.073170731707317
0	78913	48	0.051282051282051
0	78913	49	0.15
0	78913	50	0.15555555555556
0	78913	51	0.10416666666667
0	78913	52	0.035714285714286
0	78913	53	0.11111111111111
0	78913	54	0.10344827586207
0	78913	55	0.032258064516129
0	78913	56	0.0625
0	78913	57	0.095238095238095
0	78913	58	0.057142857142857
0	78913	59	0.057142857142857
0	78913	60	0
0	78913	61	0.03030303030303
0	78913	62	0.060606060606061
0	78913	63	0.078947368421053
0	78913	64	0.090909090909091
0	78913	65	0.03448275862069
0	78913	66	0.047619047619048
0	78913	67	0
0	78913	68	0.16666666666667
0	78913	69	0.083333333333333
0	78913	70	0.090909090909091
0	78913	71	0.11111111111111
0	78913	72	0.12121212121212
0	78913	73	0.090909090909091
0	78913	74	0
0	78913	75	0.032258064516129
0	78913	76	0.04
vector 1  video_simple_scenario_network.node[0].proactive_component  hdistance[0].proactive_component  ETV
1	78913	1	1
1	78913	2	1
1	78913	3	1
1	78913	4	1
1	78913	5	1
1	78913	6	1
1	78913	7	1
1	78913	8	1
1	78913	9	1
1	78913	10	1
1	78913	11	1
1	78913	12	1
1	78913	13	1
1	78913	14	1
1	78913	15	1
1	78913	16	1
1	78913	17	1
1	78913	18	1
1	78913	19	1
1	78913	20	1
1	78913	21	1
1	78913	22	1
1	78913	23	1
1	78913	24	1
1	78913	25	1
1	78913	26	1
1	78913	27	1
1	78913	28	1
1	78913	29	1
1	78913	30	1
1	78913	31	1
1	78913	32	1
1	78913	33	1
1	78913	34	1
1	78913	35	1
1	78913	36	1
1	78913	37	1
1	78913	38	1
1	78913	39	1
1	78913	40	1
1	78913	41	1
1	78913	42	1
1	78913	43	1
1	78913	44	1
1	78913	45	1
1	78913	46	1
1	78913	47	1
1	78913	48	1
1	78913	49	1
1	78913	50	1
1	78913	51	1
1	78913	52	1
1	78913	53	1
1	78913	54	1
1	78913	55	1
1	78913	56	1
1	78913	57	1
1	78913	58	1
1	78913	59	1
1	78913	60	0
1	78913	61	1
1	78913	62	1
1	78913	63	1
1	78913	64	1
1	78913	65	1
1	78913	66	1
1	78913	67	0
1	78913	68	1
1	78913	69	1
1	78913	70	1
1	78913	71	1
1	78913	72	1
1	78913	73	1
1	78913	74	0
1	78913	75	1
1	78913	76	1
vector 2  video_simple_scenario_network.client[0]  hdistance[0].real  ETV
2	78913	1	0.011025358324146
2	78913	2	0.087473002159827
2	78913	3	0.20401337792642
2	78913	4	0.26069246435845
2	78913	5	0.33333333333333
2	78913	6	0.4270462633452
2	78913	7	0.53112033195021
2	78913	8	0.54708520179372
2	78913	9	0.56744186046512
2	78913	10	0.6524064171123
2	78913	11	0.66666666666667
2	78913	12	0.68666666666667
2	78913	13	0.7112676056338
2	78913	14	0.65873015873016
2	78913	15	0.71681415929204
2	78913	16	0.8
2	78913	17	0.76521739130435
2	78913	18	0.77777777777778
2	78913	19	0.79
2	78913	20	0.78571428571429
2	78913	21	0.75490196078431
2	78913	22	0.77319587628866
2	78913	23	0.80722891566265
2	78913	24	0.8
2	78913	25	0.78082191780822
2	78913	26	0.84126984126984
2	78913	27	0.83561643835616
2	78913	28	0.83783783783784
2	78913	29	0.85507246376812
2	78913	30	0.91666666666667
2	78913	31	0.8135593220339
2	78913	32	0.78846153846154
2	78913	33	0.84126984126984
2	78913	34	0.859375
2	78913	35	0.81818181818182
2	78913	36	0.91836734693878
2	78913	37	0.80645161290323
2	78913	38	0.92592592592593
2	78913	39	0.8
2	78913	40	0.88636363636364
2	78913	41	0.83928571428571
2	78913	42	0.86666666666667
2	78913	43	0.7906976744186
2	78913	44	0.85483870967742
2	78913	45	0.96774193548387
2	78913	46	0.88095238095238
2	78913	47	0.92105263157895
2	78913	48	0.94594594594595
2	78913	49	0.82352941176471
2	78913	50	0.82051282051282
2	78913	51	0.88372093023256
2	78913	52	0.96296296296296
2	78913	53	0.875
2	78913	54	0.88461538461538
2	78913	55	0.96666666666667
2	78913	56	0.93333333333333
2	78913	57	0.8974358974359
2	78913	58	0.94117647058824
2	78913	59	0.93939393939394
2	78913	60	1
2	78913	61	0.96875
2	78913	62	0.93548387096774
2	78913	63	0.91428571428571
2	78913	64	0.9
2	78913	65	0.96428571428571
2	78913	66	0.95
2	78913	67	1
2	78913	68	0.80952380952381
2	78913	69	0.90909090909091
2	78913	70	0.9047619047619
2	78913	71	0.875
2	78913	72	0.86206896551724
2	78913	73	0.9
2	78913	74	1
2	78913	75	0.96666666666667
2	78913	76	0.95833333333333
