version 2
run General-2-20150311-18:59:35-28955
attr D prob_cache
attr F spr
attr R lru
attr a 0.5
attr configname General
attr datetime 20150311-18:59:35
attr experiment General
attr inifile omnetpp.ini
attr iterationvars "$net=abilene, $rep=0, $a=0.5, $F=spr, $ttl=1000, $D=prob_cache, $R=lru"
attr iterationvars2 "$net=abilene, $rep=0, $a=0.5, $F=spr, $ttl=1000, $D=prob_cache, $R=lru, $repetition=0"
attr measurement "$net=abilene, $rep=0, $a=0.5, $F=spr, $ttl=1000, $D=prob_cache, $R=lru"
attr net abilene
attr network networks.${net=abilene}_network
attr processid 28955
attr rep 0
attr repetition 0
attr replication #0
attr resultdir results
attr runnumber 2
attr seedset 0
attr ttl 1000

vector 0  abilene_network.node[0].content_store  hit_node[0]  ETV
0	590637	1	0.4
0	590637	2	1
0	590637	3	1
0	590637	4	0.33333333333333
0	590637	5	0
0	590637	6	0.5
0	590637	7	0.75
0	590637	8	0
0	590637	9	0
0	590637	10	0
0	590637	11	0
0	590637	12	0
0	590637	13	0
0	590637	14	0
0	590637	15	1
0	590637	16	0
0	590637	17	0
0	590637	18	0
0	590637	19	0
0	590637	20	0
0	590637	21	-nan
0	590637	22	0
0	590637	23	0
0	590637	24	0.66666666666667
0	590637	25	-nan
0	590637	26	0
0	590637	27	-nan
0	590637	28	0
0	590637	29	0
0	590637	30	0
0	590637	31	0
0	590637	32	0
0	590637	33	0
0	590637	34	-nan
0	590637	35	0
0	590637	36	0.5
0	590637	37	0
0	590637	38	-nan
0	590637	39	0
0	590637	40	0
0	590637	41	0
0	590637	42	0
0	590637	43	0
0	590637	44	0
0	590637	45	0
0	590637	46	0
0	590637	47	0
0	590637	48	0
0	590637	49	0.5
0	590637	50	-nan
0	590637	51	0.5
0	590637	52	0
0	590637	53	0
0	590637	54	-nan
0	590637	55	0.25
0	590637	56	0
0	590637	57	0.33333333333333
0	590637	58	-nan
0	590637	59	-nan
0	590637	60	0
0	590637	61	0
0	590637	62	0
0	590637	63	0
0	590637	64	-nan
0	590637	65	0
0	590637	66	-nan
0	590637	67	0
0	590637	68	0
0	590637	69	0
0	590637	70	-nan
0	590637	71	0
0	590637	72	0.5
0	590637	73	-nan
0	590637	74	0
0	590637	75	-nan
0	590637	76	-nan
0	590637	77	-nan
0	590637	78	0.33333333333333
0	590637	79	0
0	590637	80	0
0	590637	81	-nan
0	590637	82	0
0	590637	83	-nan
0	590637	84	0
0	590637	85	0
0	590637	86	-nan
0	590637	87	0
0	590637	88	0
0	590637	89	-nan
0	590637	90	-nan
0	590637	91	0
0	590637	92	0
0	590637	93	-nan
0	590637	94	0
0	590637	95	0
0	590637	96	0
0	590637	97	0
0	590637	98	0
0	590637	99	0
0	590637	100	-nan
0	590637	101	-nan
0	590637	102	0
0	590637	103	-nan
0	590637	104	0
0	590637	105	-nan
0	590637	106	-nan
0	590637	107	0
0	590637	108	-nan
0	590637	109	0
0	590637	110	-nan
0	590637	111	0
0	590637	112	-nan
0	590637	113	-nan
0	590637	114	0
0	590637	115	-nan
0	590637	116	0
0	590637	117	0
0	590637	118	0
0	590637	119	0
0	590637	120	-nan
0	590637	121	0
0	590637	122	0
0	590637	123	0
0	590637	124	0
0	590637	125	0
0	590637	126	-nan
0	590637	127	0
0	590637	128	0
0	590637	129	0
0	590637	130	-nan
0	590637	131	0
0	590637	132	0
0	590637	133	0
0	590637	134	0
0	590637	135	0
0	590637	136	0
0	590637	137	-nan
0	590637	138	-nan
0	590637	139	0
0	590637	140	0
0	590637	141	0
0	590637	142	0
0	590637	143	-nan
0	590637	144	0
0	590637	145	0
0	590637	146	0
0	590637	147	-nan
0	590637	148	-nan
0	590637	149	-nan
0	590637	150	0
0	590637	151	0
0	590637	152	-nan
0	590637	153	-nan
0	590637	154	0
0	590637	155	0
0	590637	156	-nan
0	590637	157	0
0	590637	158	0
0	590637	159	0
0	590637	160	-nan
0	590637	161	-nan
0	590637	162	0
0	590637	163	0
0	590637	164	-nan
0	590637	165	-nan
0	590637	166	0
0	590637	167	-nan
0	590637	168	-nan
0	590637	169	0
0	590637	170	-nan
0	590637	171	0
0	590637	172	-nan
0	590637	173	0
0	590637	174	0
0	590637	175	-nan
0	590637	176	0
0	590637	177	-nan
0	590637	178	0
0	590637	179	0
0	590637	180	-nan
0	590637	181	0
0	590637	182	0
0	590637	183	-nan
0	590637	184	-nan
0	590637	185	-nan
0	590637	186	-nan
0	590637	187	0
0	590637	188	-nan
0	590637	189	-nan
0	590637	190	-nan
0	590637	191	0
0	590637	192	-nan
0	590637	193	0
0	590637	194	0
0	590637	195	0
0	590637	196	0
0	590637	197	-nan
0	590637	198	0
0	590637	199	-nan
0	590637	200	-nan
0	590637	201	0
0	590637	202	-nan
0	590637	203	-nan
0	590637	204	0
0	590637	205	-nan
0	590637	206	0
0	590637	207	-nan
0	590637	208	0
0	590637	209	-nan
0	590637	210	-nan
0	590637	211	-nan
0	590637	212	-nan
0	590637	213	0
0	590637	214	-nan
0	590637	215	0
0	590637	216	0
0	590637	217	-nan
0	590637	218	0
0	590637	219	-nan
0	590637	220	-nan
0	590637	221	-nan
0	590637	222	0
0	590637	223	0
0	590637	224	-nan
0	590637	225	-nan
0	590637	226	-nan
0	590637	227	-nan
0	590637	228	0
0	590637	229	0
0	590637	230	0
0	590637	231	0
0	590637	232	-nan
0	590637	233	0
0	590637	234	0
0	590637	235	0
0	590637	236	-nan
0	590637	237	-nan
0	590637	238	-nan
0	590637	239	-nan
0	590637	240	-nan
0	590637	241	0
0	590637	242	-nan
0	590637	243	0
0	590637	244	0
0	590637	245	-nan
0	590637	246	-nan
0	590637	247	-nan
0	590637	248	-nan
0	590637	249	-nan
0	590637	250	-nan
0	590637	251	0
0	590637	252	0
0	590637	253	0
0	590637	254	-nan
0	590637	255	0
0	590637	256	-nan
0	590637	257	0
0	590637	258	0
0	590637	259	0
0	590637	260	0
0	590637	261	0
0	590637	262	-nan
0	590637	263	-nan
0	590637	264	0
0	590637	265	-nan
0	590637	266	-nan
0	590637	267	-nan
0	590637	268	-nan
0	590637	269	0
0	590637	270	0
0	590637	271	0
0	590637	272	-nan
0	590637	273	-nan
0	590637	274	0
0	590637	275	0
0	590637	276	-nan
0	590637	277	0
0	590637	278	0
0	590637	279	0
0	590637	280	-nan
0	590637	281	-nan
0	590637	282	-nan
0	590637	283	-nan
0	590637	284	-nan
0	590637	285	-nan
0	590637	286	-nan
0	590637	287	0
0	590637	288	0
0	590637	289	-nan
0	590637	290	-nan
0	590637	291	-nan
0	590637	292	0
0	590637	293	0
0	590637	294	-nan
0	590637	295	0
0	590637	296	-nan
0	590637	297	-nan
0	590637	298	0
0	590637	299	-nan
0	590637	300	0
0	590637	301	0
0	590637	302	-nan
0	590637	303	0
0	590637	304	-nan
0	590637	305	-nan
0	590637	306	0
0	590637	307	-nan
0	590637	308	-nan
0	590637	309	0
0	590637	310	0
0	590637	311	0
0	590637	312	0.33333333333333
0	590637	313	0
0	590637	314	-nan
0	590637	315	-nan
0	590637	316	0
0	590637	317	0
0	590637	318	-nan
0	590637	319	0.5
0	590637	320	-nan
0	590637	321	-nan
0	590637	322	0
0	590637	323	0
0	590637	324	-nan
0	590637	325	0
0	590637	326	0
0	590637	327	0
0	590637	328	0
0	590637	329	0
0	590637	330	-nan
0	590637	331	-nan
0	590637	332	0
0	590637	333	0
0	590637	334	-nan
0	590637	335	0
0	590637	336	0
0	590637	337	-nan
0	590637	338	-nan
0	590637	339	-nan
0	590637	340	0
0	590637	341	-nan
0	590637	342	-nan
0	590637	343	-nan
0	590637	344	-nan
0	590637	345	0
0	590637	346	0
0	590637	347	-nan
0	590637	348	-nan
0	590637	349	-nan
0	590637	350	-nan
0	590637	351	-nan
0	590637	352	-nan
0	590637	353	-nan
0	590637	354	-nan
0	590637	355	0
0	590637	356	-nan
0	590637	357	-nan
0	590637	358	0
0	590637	359	0
0	590637	360	-nan
0	590637	361	0
0	590637	362	0
0	590637	363	-nan
0	590637	364	-nan
0	590637	365	-nan
0	590637	366	-nan
0	590637	367	0
0	590637	368	-nan
0	590637	369	-nan
0	590637	370	-nan
0	590637	371	-nan
0	590637	372	-nan
0	590637	373	-nan
0	590637	374	-nan
0	590637	375	-nan
0	590637	376	0
0	590637	377	-nan
0	590637	378	-nan
0	590637	379	0
0	590637	380	-nan
0	590637	381	-nan
0	590637	382	0
0	590637	383	-nan
0	590637	384	0
0	590637	385	-nan
0	590637	386	0
0	590637	387	-nan
0	590637	388	0
0	590637	389	-nan
0	590637	390	0
0	590637	391	0
0	590637	392	0
0	590637	393	-nan
0	590637	394	-nan
0	590637	395	0
0	590637	396	-nan
0	590637	397	-nan
0	590637	398	0
0	590637	399	0
0	590637	400	-nan
0	590637	401	-nan
0	590637	402	-nan
0	590637	403	-nan
0	590637	404	-nan
0	590637	405	-nan
0	590637	406	-nan
0	590637	407	-nan
0	590637	408	-nan
0	590637	409	-nan
0	590637	410	-nan
0	590637	411	-nan
0	590637	412	-nan
0	590637	413	0
0	590637	414	0
0	590637	415	-nan
0	590637	416	-nan
0	590637	417	-nan
0	590637	418	-nan
0	590637	419	0
0	590637	420	-nan
0	590637	421	0
0	590637	422	-nan
0	590637	423	-nan
0	590637	424	-nan
0	590637	425	0
0	590637	426	-nan
0	590637	427	-nan
0	590637	428	0
0	590637	429	0
0	590637	430	-nan
0	590637	431	0
0	590637	432	0
0	590637	433	-nan
0	590637	434	0
0	590637	435	-nan
0	590637	436	0
0	590637	437	0
0	590637	438	0
0	590637	439	0
0	590637	440	0
0	590637	441	0
0	590637	442	-nan
0	590637	443	-nan
0	590637	444	-nan
0	590637	445	-nan
0	590637	446	0
0	590637	447	-nan
0	590637	448	0
0	590637	449	0
0	590637	450	0
0	590637	451	-nan
0	590637	452	-nan
0	590637	453	-nan
0	590637	454	0
0	590637	455	-nan
0	590637	456	-nan
0	590637	457	0
0	590637	458	0
0	590637	459	-nan
0	590637	460	0
0	590637	461	0
0	590637	462	-nan
0	590637	463	-nan
0	590637	464	-nan
0	590637	465	-nan
0	590637	466	-nan
0	590637	467	0
0	590637	468	0
0	590637	469	0
0	590637	470	-nan
0	590637	471	-nan
0	590637	472	-nan
0	590637	473	0
0	590637	474	-nan
0	590637	475	-nan
0	590637	476	0
0	590637	477	0
0	590637	478	-nan
0	590637	479	0
0	590637	480	0
0	590637	481	0
0	590637	482	0
0	590637	483	-nan
0	590637	484	0
0	590637	485	0
0	590637	486	-nan
0	590637	487	0
0	590637	488	-nan
0	590637	489	0
0	590637	490	-nan
0	590637	491	0
0	590637	492	0
0	590637	493	-nan
0	590637	494	-nan
0	590637	495	-nan
0	590637	496	-nan
0	590637	497	-nan
0	590637	498	-nan
0	590637	499	0
0	590637	500	-nan
0	590637	501	0
0	590637	502	-nan
0	590637	503	-nan
0	590637	504	-nan
0	590637	505	-nan
0	590637	506	0
0	590637	507	1
0	590637	508	-nan
0	590637	509	-nan
0	590637	510	-nan
0	590637	511	-nan
0	590637	512	-nan
0	590637	513	-nan
0	590637	514	0
0	590637	515	-nan
0	590637	516	-nan
0	590637	517	-nan
0	590637	518	-nan
0	590637	519	-nan
0	590637	520	0
0	590637	521	-nan
0	590637	522	0
0	590637	523	-nan
0	590637	524	-nan
0	590637	525	-nan
0	590637	526	-nan
0	590637	527	-nan
0	590637	528	-nan
0	590637	529	-nan
0	590637	530	0
0	590637	531	0
0	590637	532	-nan
0	590637	533	-nan
0	590637	534	-nan
0	590637	535	-nan
0	590637	536	-nan
0	590637	537	0
0	590637	538	-nan
0	590637	539	-nan
0	590637	540	0
0	590637	541	-nan
0	590637	542	-nan
0	590637	543	0
0	590637	544	-nan
0	590637	545	0
0	590637	546	0
0	590637	547	-nan
0	590637	548	0
0	590637	549	-nan
0	590637	550	0
0	590637	551	0
0	590637	552	-nan
0	590637	553	-nan
0	590637	554	0
0	590637	555	0
0	590637	556	-nan
0	590637	557	0
0	590637	558	-nan
0	590637	559	0
0	590637	560	0
0	590637	561	0
0	590637	562	-nan
0	590637	563	-nan
0	590637	564	-nan
0	590637	565	-nan
0	590637	566	0
0	590637	567	-nan
0	590637	568	0
0	590637	569	0
0	590637	570	-nan
0	590637	571	0
0	590637	572	1
0	590637	573	-nan
0	590637	574	0
0	590637	575	0
0	590637	576	-nan
0	590637	577	-nan
0	590637	578	-nan
0	590637	579	-nan
0	590637	580	-nan
0	590637	581	-nan
0	590637	582	0
0	590637	583	0
0	590637	584	-nan
0	590637	585	-nan
0	590637	586	-nan
0	590637	587	-nan
0	590637	588	-nan
0	590637	589	-nan
0	590637	590	-nan
0	590637	591	-nan
0	590637	592	0
0	590637	593	-nan
0	590637	594	0
0	590637	595	-nan
0	590637	596	-nan
0	590637	597	-nan
0	590637	598	0
0	590637	599	0
0	590637	600	-nan
0	590637	601	-nan
0	590637	602	-nan
0	590637	603	-nan
0	590637	604	-nan
0	590637	605	-nan
0	590637	606	-nan
0	590637	607	-nan
0	590637	608	-nan
0	590637	609	-nan
0	590637	610	-nan
0	590637	611	-nan
0	590637	612	-nan
0	590637	613	0
0	590637	614	0
0	590637	615	-nan
0	590637	616	-nan
0	590637	617	-nan
0	590637	618	-nan
0	590637	619	-nan
0	590637	620	-nan
0	590637	621	-nan
0	590637	622	-nan
0	590637	623	-nan
0	590637	624	-nan
0	590637	625	-nan
0	590637	626	0
0	590637	627	-nan
0	590637	628	0.5
0	590637	629	-nan
0	590637	630	-nan
0	590637	631	-nan
0	590637	632	-nan
0	590637	633	-nan
0	590637	634	-nan
0	590637	635	-nan
0	590637	636	-nan
0	590637	637	-nan
0	590637	638	-nan
0	590637	639	0
0	590637	640	-nan
0	590637	641	-nan
0	590637	642	-nan
0	590637	643	-nan
0	590637	644	-nan
0	590637	645	-nan
0	590637	646	0
0	590637	647	-nan
0	590637	648	-nan
0	590637	649	-nan
0	590637	650	-nan
0	590637	651	-nan
0	590637	652	-nan
0	590637	653	0
0	590637	654	-nan
0	590637	655	-nan
0	590637	656	-nan
0	590637	657	-nan
0	590637	658	-nan
0	590637	659	-nan
0	590637	660	-nan
0	590637	661	-nan
0	590637	662	-nan
0	590637	663	0
0	590637	664	-nan
0	590637	665	-nan
0	590637	666	-nan
0	590637	667	0
0	590637	668	0
0	590637	669	-nan
0	590637	670	-nan
0	590637	671	0
0	590637	672	-nan
0	590637	673	0
0	590637	674	-nan
0	590637	675	-nan
0	590637	676	0
0	590637	677	-nan
0	590637	678	-nan
0	590637	679	0
0	590637	680	0
0	590637	681	0
0	590637	682	0
0	590637	683	0
0	590637	684	-nan
0	590637	685	0.5
0	590637	686	-nan
0	590637	687	0
0	590637	688	0
0	590637	689	-nan
0	590637	690	-nan
0	590637	691	0
0	590637	692	-nan
0	590637	693	-nan
0	590637	694	-nan
0	590637	695	-nan
0	590637	696	-nan
0	590637	697	-nan
0	590637	698	-nan
0	590637	699	0
0	590637	700	-nan
0	590637	701	-nan
0	590637	702	-nan
0	590637	703	-nan
0	590637	704	-nan
0	590637	705	-nan
0	590637	706	0
0	590637	707	-nan
0	590637	708	-nan
0	590637	709	-nan
0	590637	710	-nan
0	590637	711	-nan
0	590637	712	0
0	590637	713	-nan
0	590637	714	-nan
0	590637	715	-nan
0	590637	716	-nan
0	590637	717	-nan
0	590637	718	-nan
0	590637	719	0
0	590637	720	0
0	590637	721	0
0	590637	722	0
0	590637	723	-nan
0	590637	724	-nan
0	590637	725	-nan
0	590637	726	0
0	590637	727	-nan
0	590637	728	-nan
0	590637	729	-nan
0	590637	730	-nan
0	590637	731	-nan
0	590637	732	-nan
0	590637	733	-nan
0	590637	734	0
0	590637	735	-nan
0	590637	736	0
0	590637	737	0
0	590637	738	-nan
0	590637	739	0
0	590637	740	0
0	590637	741	0
0	590637	742	-nan
0	590637	743	-nan
0	590637	744	-nan
0	590637	745	0
0	590637	746	0
0	590637	747	-nan
0	590637	748	-nan
0	590637	749	0
0	590637	750	0
0	590637	751	-nan
0	590637	752	-nan
0	590637	753	0
0	590637	754	-nan
0	590637	755	-nan
0	590637	756	0
0	590637	757	-nan
0	590637	758	-nan
0	590637	759	-nan
0	590637	760	-nan
0	590637	761	-nan
0	590637	762	-nan
0	590637	763	-nan
0	590637	764	-nan
0	590637	765	0
0	590637	766	-nan
0	590637	767	-nan
0	590637	768	-nan
0	590637	769	0
0	590637	770	0
0	590637	771	-nan
0	590637	772	-nan
0	590637	773	-nan
0	590637	774	0
0	590637	775	0
0	590637	776	-nan
0	590637	777	0
0	590637	778	-nan
0	590637	779	-nan
0	590637	780	0
0	590637	781	-nan
0	590637	782	-nan
0	590637	783	0
0	590637	784	-nan
0	590637	785	-nan
0	590637	786	-nan
0	590637	787	-nan
0	590637	788	-nan
0	590637	789	-nan
0	590637	790	0
0	590637	791	-nan
0	590637	792	-nan
0	590637	793	-nan
0	590637	794	0
0	590637	795	0
0	590637	796	0
0	590637	797	-nan
0	590637	798	-nan
0	590637	799	-nan
0	590637	800	-nan
0	590637	801	0
0	590637	802	-nan
0	590637	803	0
0	590637	804	0
0	590637	805	0
0	590637	806	-nan
0	590637	807	-nan
0	590637	808	-nan
0	590637	809	0
0	590637	810	-nan
0	590637	811	-nan
0	590637	812	0
0	590637	813	-nan
0	590637	814	-nan
0	590637	815	-nan
0	590637	816	0
0	590637	817	0
0	590637	818	0
0	590637	819	-nan
0	590637	820	-nan
0	590637	821	-nan
0	590637	822	0
0	590637	823	-nan
0	590637	824	-nan
0	590637	825	0
0	590637	826	-nan
0	590637	827	0
0	590637	828	-nan
0	590637	829	0
0	590637	830	0
0	590637	831	-nan
0	590637	832	-nan
0	590637	833	-nan
0	590637	834	-nan
0	590637	835	-nan
0	590637	836	-nan
0	590637	837	-nan
0	590637	838	-nan
0	590637	839	-nan
0	590637	840	-nan
0	590637	841	-nan
0	590637	842	0
0	590637	843	0
0	590637	844	0
0	590637	845	-nan
0	590637	846	-nan
0	590637	847	-nan
0	590637	848	0
0	590637	849	-nan
0	590637	850	-nan
0	590637	851	-nan
0	590637	852	-nan
0	590637	853	-nan
0	590637	854	-nan
0	590637	855	-nan
0	590637	856	-nan
0	590637	857	-nan
0	590637	858	-nan
0	590637	859	0
0	590637	860	-nan
0	590637	861	-nan
0	590637	862	-nan
0	590637	863	-nan
0	590637	864	-nan
0	590637	865	0
0	590637	866	-nan
0	590637	867	-nan
0	590637	868	0
0	590637	869	-nan
0	590637	870	-nan
0	590637	871	-nan
0	590637	872	0
0	590637	873	0
0	590637	874	-nan
0	590637	875	-nan
0	590637	876	-nan
0	590637	877	-nan
0	590637	878	0
0	590637	879	-nan
0	590637	880	0
0	590637	881	-nan
0	590637	882	-nan
0	590637	883	-nan
0	590637	884	0
0	590637	885	-nan
0	590637	886	-nan
0	590637	887	0
0	590637	888	-nan
0	590637	889	-nan
0	590637	890	-nan
0	590637	891	-nan
0	590637	892	-nan
0	590637	893	0
0	590637	894	-nan
0	590637	895	-nan
0	590637	896	-nan
0	590637	897	-nan
0	590637	898	-nan
0	590637	899	-nan
0	590637	900	-nan
0	590637	901	-nan
0	590637	902	-nan
0	590637	903	-nan
0	590637	904	-nan
0	590637	905	-nan
0	590637	906	0
0	590637	907	0
0	590637	908	0
0	590637	909	-nan
0	590637	910	0
0	590637	911	-nan
0	590637	912	-nan
0	590637	913	-nan
0	590637	914	-nan
0	590637	915	0
0	590637	916	-nan
0	590637	917	-nan
0	590637	918	0
0	590637	919	0
0	590637	920	-nan
0	590637	921	-nan
0	590637	922	-nan
0	590637	923	-nan
0	590637	924	-nan
0	590637	925	-nan
0	590637	926	-nan
0	590637	927	-nan
0	590637	928	-nan
0	590637	929	-nan
0	590637	930	-nan
0	590637	931	-nan
0	590637	932	0
0	590637	933	-nan
0	590637	934	0
0	590637	935	0
0	590637	936	-nan
0	590637	937	-nan
0	590637	938	0
0	590637	939	-nan
0	590637	940	-nan
0	590637	941	-nan
0	590637	942	-nan
0	590637	943	0
0	590637	944	-nan
0	590637	945	-nan
0	590637	946	0
0	590637	947	-nan
0	590637	948	-nan
0	590637	949	-nan
0	590637	950	-nan
0	590637	951	-nan
0	590637	952	-nan
0	590637	953	-nan
0	590637	954	-nan
0	590637	955	0
0	590637	956	-nan
0	590637	957	-nan
0	590637	958	-nan
0	590637	959	-nan
0	590637	960	-nan
0	590637	961	-nan
0	590637	962	0
0	590637	963	0
0	590637	964	-nan
0	590637	965	-nan
0	590637	966	-nan
0	590637	967	-nan
0	590637	968	0
0	590637	969	-nan
0	590637	970	-nan
0	590637	971	0
0	590637	972	-nan
0	590637	973	-nan
0	590637	974	-nan
0	590637	975	-nan
0	590637	976	-nan
0	590637	977	-nan
0	590637	978	-nan
0	590637	979	-nan
0	590637	980	0
0	590637	981	-nan
0	590637	982	-nan
0	590637	983	-nan
0	590637	984	0
0	590637	985	-nan
0	590637	986	-nan
0	590637	987	-nan
0	590637	988	-nan
0	590637	989	0
0	590637	990	0
0	590637	991	0
0	590637	992	0
0	590637	993	-nan
0	590637	994	-nan
0	590637	995	-nan
0	590637	996	-nan
0	590637	997	-nan
0	590637	998	-nan
0	590637	999	-nan
0	590637	1000	0
0	590637	1001	-nan
0	590637	1002	-nan
0	590637	1003	-nan
0	590637	1004	0
0	590637	1005	-nan
0	590637	1006	-nan
0	590637	1007	-nan
0	590637	1008	-nan
0	590637	1009	-nan
0	590637	1010	-nan
0	590637	1011	-nan
0	590637	1012	-nan
0	590637	1013	0
0	590637	1014	-nan
0	590637	1015	-nan
0	590637	1016	-nan
0	590637	1017	-nan
0	590637	1018	0
0	590637	1019	-nan
0	590637	1020	0
0	590637	1021	0
0	590637	1022	-nan
0	590637	1023	-nan
0	590637	1024	-nan
0	590637	1025	-nan
0	590637	1026	0
0	590637	1027	0
0	590637	1028	0
0	590637	1029	-nan
0	590637	1030	-nan
0	590637	1031	-nan
0	590637	1032	-nan
0	590637	1033	0
0	590637	1034	-nan
0	590637	1035	-nan
0	590637	1036	-nan
0	590637	1037	0
0	590637	1038	-nan
0	590637	1039	0
0	590637	1040	0
0	590637	1041	-nan
0	590637	1042	0
0	590637	1043	0
0	590637	1044	-nan
0	590637	1045	-nan
0	590637	1046	-nan
0	590637	1047	-nan
0	590637	1048	-nan
0	590637	1049	-nan
0	590637	1050	0
0	590637	1051	0
0	590637	1052	-nan
0	590637	1053	-nan
0	590637	1054	0
0	590637	1055	0
0	590637	1056	0
0	590637	1057	-nan
0	590637	1058	-nan
0	590637	1059	-nan
0	590637	1060	-nan
0	590637	1061	-nan
0	590637	1062	-nan
0	590637	1063	0
0	590637	1064	-nan
0	590637	1065	0
0	590637	1066	-nan
0	590637	1067	-nan
0	590637	1068	-nan
0	590637	1069	-nan
0	590637	1070	-nan
0	590637	1071	-nan
0	590637	1072	-nan
0	590637	1073	-nan
0	590637	1074	-nan
0	590637	1075	-nan
0	590637	1076	-nan
0	590637	1077	0
0	590637	1078	-nan
0	590637	1079	-nan
0	590637	1080	-nan
0	590637	1081	-nan
0	590637	1082	0
0	590637	1083	-nan
0	590637	1084	0
0	590637	1085	-nan
0	590637	1086	0
0	590637	1087	-nan
0	590637	1088	-nan
0	590637	1089	-nan
0	590637	1090	-nan
0	590637	1091	-nan
0	590637	1092	-nan
0	590637	1093	-nan
0	590637	1094	-nan
0	590637	1095	-nan
0	590637	1096	-nan
0	590637	1097	-nan
0	590637	1098	-nan
0	590637	1099	-nan
0	590637	1100	-nan
0	590637	1101	-nan
0	590637	1102	-nan
0	590637	1103	-nan
0	590637	1104	-nan
0	590637	1105	-nan
0	590637	1106	-nan
0	590637	1107	-nan
0	590637	1108	0
0	590637	1109	-nan
0	590637	1110	-nan
0	590637	1111	-nan
0	590637	1112	-nan
0	590637	1113	-nan
0	590637	1114	-nan
0	590637	1115	-nan
0	590637	1116	0
0	590637	1117	-nan
0	590637	1118	-nan
0	590637	1119	-nan
0	590637	1120	-nan
0	590637	1121	-nan
0	590637	1122	-nan
0	590637	1123	-nan
0	590637	1124	0
0	590637	1125	-nan
0	590637	1126	0
0	590637	1127	-nan
0	590637	1128	-nan
0	590637	1129	-nan
0	590637	1130	-nan
0	590637	1131	0
0	590637	1132	0
0	590637	1133	-nan
0	590637	1134	-nan
0	590637	1135	-nan
0	590637	1136	-nan
0	590637	1137	-nan
0	590637	1138	-nan
0	590637	1139	-nan
0	590637	1140	-nan
0	590637	1141	-nan
0	590637	1142	0
0	590637	1143	-nan
0	590637	1144	-nan
0	590637	1145	-nan
0	590637	1146	-nan
0	590637	1147	-nan
0	590637	1148	-nan
0	590637	1149	-nan
0	590637	1150	-nan
0	590637	1151	0
0	590637	1152	-nan
0	590637	1153	0
0	590637	1154	-nan
0	590637	1155	-nan
0	590637	1156	0
0	590637	1157	-nan
0	590637	1158	-nan
0	590637	1159	-nan
0	590637	1160	0
0	590637	1161	-nan
0	590637	1162	-nan
0	590637	1163	-nan
0	590637	1164	-nan
0	590637	1165	-nan
0	590637	1166	-nan
0	590637	1167	-nan
0	590637	1168	0
0	590637	1169	0
0	590637	1170	-nan
0	590637	1171	0
0	590637	1172	-nan
0	590637	1173	-nan
0	590637	1174	-nan
0	590637	1175	-nan
0	590637	1176	0
0	590637	1177	-nan
0	590637	1178	-nan
0	590637	1179	-nan
0	590637	1180	-nan
0	590637	1181	-nan
0	590637	1182	-nan
0	590637	1183	-nan
0	590637	1184	-nan
0	590637	1185	-nan
0	590637	1186	-nan
0	590637	1187	-nan
0	590637	1188	-nan
0	590637	1189	0
0	590637	1190	-nan
0	590637	1191	-nan
0	590637	1192	0
0	590637	1193	0
0	590637	1194	-nan
0	590637	1195	-nan
0	590637	1196	0
0	590637	1197	-nan
0	590637	1198	-nan
0	590637	1199	0
0	590637	1200	-nan
0	590637	1201	-nan
0	590637	1202	-nan
0	590637	1203	-nan
0	590637	1204	-nan
0	590637	1205	-nan
0	590637	1206	-nan
0	590637	1207	0
0	590637	1208	-nan
0	590637	1209	0
0	590637	1210	-nan
0	590637	1211	-nan
0	590637	1212	-nan
0	590637	1213	-nan
0	590637	1214	-nan
0	590637	1215	-nan
0	590637	1216	-nan
0	590637	1217	-nan
0	590637	1218	0
0	590637	1219	-nan
0	590637	1220	-nan
0	590637	1221	-nan
0	590637	1222	-nan
0	590637	1223	-nan
0	590637	1224	-nan
0	590637	1225	0
0	590637	1226	-nan
0	590637	1227	-nan
0	590637	1228	0
0	590637	1229	-nan
0	590637	1230	-nan
0	590637	1231	-nan
0	590637	1232	-nan
0	590637	1233	-nan
0	590637	1234	-nan
0	590637	1235	0
0	590637	1236	-nan
0	590637	1237	0
0	590637	1238	-nan
0	590637	1239	-nan
0	590637	1240	-nan
0	590637	1241	0
0	590637	1242	-nan
0	590637	1243	0
0	590637	1244	-nan
0	590637	1245	0
0	590637	1246	-nan
0	590637	1247	-nan
0	590637	1248	-nan
0	590637	1249	-nan
0	590637	1250	-nan
0	590637	1251	-nan
0	590637	1252	-nan
0	590637	1253	-nan
0	590637	1254	-nan
0	590637	1255	-nan
0	590637	1256	0
0	590637	1257	0
0	590637	1258	-nan
0	590637	1259	-nan
0	590637	1260	-nan
0	590637	1261	-nan
0	590637	1262	-nan
0	590637	1263	-nan
0	590637	1264	-nan
0	590637	1265	-nan
0	590637	1266	-nan
0	590637	1267	-nan
0	590637	1268	-nan
0	590637	1269	-nan
0	590637	1270	0
0	590637	1271	0
0	590637	1272	-nan
0	590637	1273	-nan
0	590637	1274	-nan
0	590637	1275	-nan
0	590637	1276	0
0	590637	1277	-nan
0	590637	1278	-nan
0	590637	1279	-nan
0	590637	1280	-nan
0	590637	1281	0
0	590637	1282	0
0	590637	1283	-nan
0	590637	1284	-nan
0	590637	1285	-nan
0	590637	1286	-nan
0	590637	1287	-nan
0	590637	1288	-nan
0	590637	1289	-nan
0	590637	1290	-nan
0	590637	1291	0
0	590637	1292	0
0	590637	1293	0
0	590637	1294	0
0	590637	1295	-nan
0	590637	1296	-nan
0	590637	1297	-nan
0	590637	1298	0
0	590637	1299	-nan
0	590637	1300	0
0	590637	1301	0
0	590637	1302	0
0	590637	1303	-nan
0	590637	1304	-nan
0	590637	1305	-nan
0	590637	1306	-nan
0	590637	1307	-nan
0	590637	1308	-nan
0	590637	1309	-nan
0	590637	1310	-nan
0	590637	1311	0
0	590637	1312	-nan
0	590637	1313	-nan
0	590637	1314	-nan
0	590637	1315	-nan
0	590637	1316	-nan
0	590637	1317	-nan
0	590637	1318	0
0	590637	1319	-nan
0	590637	1320	-nan
0	590637	1321	-nan
0	590637	1322	-nan
0	590637	1323	-nan
0	590637	1324	-nan
0	590637	1325	-nan
0	590637	1326	-nan
0	590637	1327	-nan
0	590637	1328	0
0	590637	1329	-nan
0	590637	1330	0
0	590637	1331	-nan
0	590637	1332	-nan
0	590637	1333	-nan
0	590637	1334	-nan
0	590637	1335	-nan
0	590637	1336	-nan
0	590637	1337	0
0	590637	1338	-nan
0	590637	1339	0
0	590637	1340	-nan
0	590637	1341	0
0	590637	1342	0
0	590637	1343	-nan
0	590637	1344	-nan
0	590637	1345	-nan
0	590637	1346	-nan
0	590637	1347	0
0	590637	1348	-nan
0	590637	1349	-nan
0	590637	1350	0
0	590637	1351	0
0	590637	1352	-nan
0	590637	1353	0
0	590637	1354	0
0	590637	1355	-nan
0	590637	1356	0
0	590637	1357	0
0	590637	1358	-nan
0	590637	1359	-nan
0	590637	1360	-nan
0	590637	1361	-nan
0	590637	1362	-nan
0	590637	1363	-nan
0	590637	1364	-nan
0	590637	1365	-nan
0	590637	1366	-nan
0	590637	1367	-nan
0	590637	1368	-nan
0	590637	1369	-nan
0	590637	1370	-nan
0	590637	1371	-nan
0	590637	1372	0
0	590637	1373	-nan
0	590637	1374	0
0	590637	1375	-nan
0	590637	1376	-nan
0	590637	1377	-nan
0	590637	1378	-nan
0	590637	1379	-nan
0	590637	1380	0
0	590637	1381	-nan
0	590637	1382	-nan
0	590637	1383	-nan
0	590637	1384	-nan
0	590637	1385	0
0	590637	1386	-nan
0	590637	1387	-nan
0	590637	1388	-nan
0	590637	1389	0
0	590637	1390	-nan
0	590637	1391	-nan
0	590637	1392	-nan
0	590637	1393	-nan
0	590637	1394	-nan
0	590637	1395	-nan
0	590637	1396	-nan
0	590637	1397	0
0	590637	1398	-nan
0	590637	1399	-nan
0	590637	1400	-nan
0	590637	1401	-nan
0	590637	1402	0
0	590637	1403	-nan
0	590637	1404	-nan
0	590637	1405	-nan
0	590637	1406	0
0	590637	1407	-nan
0	590637	1408	-nan
0	590637	1409	-nan
0	590637	1410	-nan
0	590637	1411	-nan
0	590637	1412	0
0	590637	1413	-nan
0	590637	1414	-nan
0	590637	1415	-nan
0	590637	1416	-nan
0	590637	1417	0
0	590637	1418	-nan
0	590637	1419	-nan
0	590637	1420	-nan
0	590637	1421	-nan
0	590637	1422	-nan
0	590637	1423	-nan
0	590637	1424	-nan
0	590637	1425	-nan
0	590637	1426	-nan
0	590637	1427	-nan
0	590637	1428	-nan
0	590637	1429	-nan
0	590637	1430	-nan
0	590637	1431	0
0	590637	1432	-nan
0	590637	1433	-nan
0	590637	1434	-nan
0	590637	1435	-nan
0	590637	1436	-nan
0	590637	1437	-nan
0	590637	1438	-nan
0	590637	1439	-nan
0	590637	1440	-nan
0	590637	1441	0
0	590637	1442	-nan
0	590637	1443	-nan
0	590637	1444	-nan
0	590637	1445	-nan
0	590637	1446	-nan
0	590637	1447	-nan
0	590637	1448	-nan
0	590637	1449	-nan
0	590637	1450	-nan
0	590637	1451	-nan
0	590637	1452	0
0	590637	1453	-nan
0	590637	1454	-nan
0	590637	1455	0
0	590637	1456	-nan
0	590637	1457	0
0	590637	1458	0
0	590637	1459	0
0	590637	1460	-nan
0	590637	1461	-nan
0	590637	1462	0
0	590637	1463	0
0	590637	1464	0
0	590637	1465	0
0	590637	1466	0
0	590637	1467	-nan
0	590637	1468	-nan
0	590637	1469	-nan
0	590637	1470	-nan
0	590637	1471	-nan
0	590637	1472	0
0	590637	1473	0
0	590637	1474	-nan
0	590637	1475	-nan
0	590637	1476	-nan
0	590637	1477	-nan
0	590637	1478	-nan
0	590637	1479	0
0	590637	1480	0
0	590637	1481	-nan
0	590637	1482	0
0	590637	1483	0
0	590637	1484	-nan
0	590637	1485	-nan
0	590637	1486	0
0	590637	1487	-nan
0	590637	1488	0
0	590637	1489	-nan
0	590637	1490	-nan
0	590637	1491	-nan
0	590637	1492	-nan
0	590637	1493	-nan
0	590637	1494	-nan
0	590637	1495	-nan
0	590637	1496	0
0	590637	1497	-nan
0	590637	1498	0.5
0	590637	1499	-nan
0	590637	1500	0
0	590637	1501	0
0	590637	1502	-nan
0	590637	1503	0
0	590637	1504	-nan
0	590637	1505	-nan
0	590637	1506	0
0	590637	1507	-nan
0	590637	1508	0
0	590637	1509	-nan
0	590637	1510	-nan
0	590637	1511	-nan
0	590637	1512	-nan
0	590637	1513	-nan
0	590637	1514	0
0	590637	1515	-nan
0	590637	1516	-nan
0	590637	1517	-nan
0	590637	1518	-nan
0	590637	1519	-nan
0	590637	1520	-nan
0	590637	1521	-nan
0	590637	1522	-nan
0	590637	1523	-nan
0	590637	1524	-nan
0	590637	1525	-nan
0	590637	1526	-nan
0	590637	1527	-nan
0	590637	1528	0
0	590637	1529	-nan
0	590637	1530	-nan
0	590637	1531	-nan
0	590637	1532	-nan
0	590637	1533	-nan
0	590637	1534	0
0	590637	1535	0
0	590637	1536	0
0	590637	1537	0
0	590637	1538	-nan
0	590637	1539	0
0	590637	1540	-nan
0	590637	1541	-nan
0	590637	1542	-nan
0	590637	1543	-nan
0	590637	1544	-nan
0	590637	1545	0
0	590637	1546	-nan
0	590637	1547	-nan
0	590637	1548	-nan
0	590637	1549	-nan
0	590637	1550	-nan
0	590637	1551	0
0	590637	1552	-nan
0	590637	1553	-nan
0	590637	1554	-nan
0	590637	1555	-nan
0	590637	1556	0
0	590637	1557	-nan
0	590637	1558	-nan
0	590637	1559	-nan
0	590637	1560	-nan
0	590637	1561	-nan
0	590637	1562	-nan
0	590637	1563	-nan
0	590637	1564	-nan
0	590637	1565	-nan
0	590637	1566	-nan
0	590637	1567	-nan
0	590637	1568	-nan
0	590637	1569	-nan
0	590637	1570	-nan
0	590637	1571	0
0	590637	1572	-nan
0	590637	1573	0
0	590637	1574	-nan
0	590637	1575	-nan
0	590637	1576	-nan
0	590637	1577	-nan
0	590637	1578	-nan
0	590637	1579	0
0	590637	1580	-nan
0	590637	1581	-nan
0	590637	1582	-nan
0	590637	1583	0
0	590637	1584	-nan
0	590637	1585	-nan
0	590637	1586	0
0	590637	1587	0
0	590637	1588	0
0	590637	1589	-nan
0	590637	1590	-nan
0	590637	1591	-nan
0	590637	1592	-nan
0	590637	1593	-nan
0	590637	1594	-nan
0	590637	1595	-nan
0	590637	1596	-nan
0	590637	1597	0
0	590637	1598	0
0	590637	1599	-nan
0	590637	1600	-nan
0	590637	1601	-nan
0	590637	1602	0
0	590637	1603	-nan
0	590637	1604	0
0	590637	1605	-nan
0	590637	1606	-nan
0	590637	1607	-nan
0	590637	1608	-nan
0	590637	1609	0
0	590637	1610	-nan
0	590637	1611	-nan
0	590637	1612	-nan
0	590637	1613	-nan
0	590637	1614	-nan
0	590637	1615	-nan
0	590637	1616	-nan
0	590637	1617	-nan
0	590637	1618	-nan
0	590637	1619	-nan
0	590637	1620	-nan
0	590637	1621	-nan
0	590637	1622	0
0	590637	1623	-nan
0	590637	1624	-nan
0	590637	1625	0
0	590637	1626	-nan
0	590637	1627	-nan
0	590637	1628	-nan
0	590637	1629	-nan
0	590637	1630	-nan
0	590637	1631	-nan
0	590637	1632	-nan
0	590637	1633	-nan
0	590637	1634	-nan
0	590637	1635	-nan
0	590637	1636	0
0	590637	1637	0
0	590637	1638	-nan
0	590637	1639	-nan
0	590637	1640	-nan
0	590637	1641	-nan
0	590637	1642	-nan
0	590637	1643	-nan
0	590637	1644	-nan
0	590637	1645	-nan
0	590637	1646	-nan
0	590637	1647	-nan
0	590637	1648	-nan
0	590637	1649	-nan
0	590637	1650	-nan
0	590637	1651	-nan
0	590637	1652	-nan
0	590637	1653	0
0	590637	1654	-nan
0	590637	1655	-nan
0	590637	1656	-nan
0	590637	1657	-nan
0	590637	1658	-nan
0	590637	1659	-nan
0	590637	1660	-nan
0	590637	1661	-nan
0	590637	1662	-nan
0	590637	1663	-nan
0	590637	1664	0
0	590637	1665	-nan
0	590637	1666	-nan
0	590637	1667	0
0	590637	1668	-nan
0	590637	1669	-nan
0	590637	1670	0
0	590637	1671	-nan
0	590637	1672	0
0	590637	1673	-nan
0	590637	1674	-nan
0	590637	1675	0.5
0	590637	1676	-nan
0	590637	1677	-nan
0	590637	1678	-nan
0	590637	1679	0
0	590637	1680	-nan