file 463843316 1397917456                                       
version 2
run General-9-20140419-16:22:43-7275
attr D fix0.01
attr F nrr
attr R lru
attr a 0.8
attr configname General
attr csize 10
attr ctlg 10^8
attr datetime 20140419-16:22:43
attr experiment General
attr inifile omnetpp.ini
attr iterationvars "$net=simple_scenario, $rep=1, $priceratiovalue=1, $a=0.8, $ctlg=10^8, $F=nrr, $ttl=1000, $D=fix0.01, $R=lru, $csize=10"
attr iterationvars2 "$net=simple_scenario, $rep=1, $priceratiovalue=1, $a=0.8, $ctlg=10^8, $F=nrr, $ttl=1000, $D=fix0.01, $R=lru, $csize=10, $repetition=0"
attr measurement "$net=simple_scenario, $rep=1, $priceratiovalue=1, $a=0.8, $ctlg=10^8, $F=nrr, $ttl=1000, $D=fix0.01, $R=lru, $csize=10"
attr net simple_scenario
attr network networks.${net=simple_scenario}_network
attr priceratiovalue 1
attr processid 7275
attr rep 1
attr repetition 0
attr replication #0
attr resultdir results
attr runnumber 9
attr seedset 1
attr ttl 1000

vector 0  simple_scenario_network.node[0].content_store  hit_node[0]  ETV
0	977 15138210 1330853 1330853 1 699051 699051 0 0.5 -nan -nan
0	15139187 15746805 1330853 1330853 699052 1398102 699051 0 0 -nan -nan
0	30885992 16058694 1330853 1330853 1398103 2097153 699051 0 0 -nan -nan
0	46944686 16063218 1330853 1330853 2097154 2796204 699051 0 0 -nan -nan
0	63007904 15927108 1330853 1330853 2796205 3489213 693009 0 0 -nan -nan
vector 1  simple_scenario_network.node[1].content_store  hit_node[1]  ETV
1	78935086 15202764 1330853 1330853 1 699051 699051 0 1 -nan -nan
1	94137850 15761940 1330853 1330853 699052 1398102 699051 0 0 -nan -nan
1	109899790 16068372 1330853 1330853 1398103 2097153 699051 0 0 -nan -nan
1	125968162 16070640 1330853 1330853 2097154 2796204 699051 0 0 -nan -nan
1	142038802 15933360 1330853 1330853 2796205 3489213 693009 0 0 -nan -nan
vector 2  simple_scenario_network.node[2].content_store  hit_node[2]  ETV
2	157972236 15203546 1330853 1330853 1 699051 699051 0 0.68121212121212 -nan -nan
2	173175782 15762090 1330853 1330853 699052 1398102 699051 0 0 -nan -nan
2	188937872 16068495 1330853 1330853 1398103 2097153 699051 0 0 -nan -nan
2	205006367 16070751 1330853 1330853 2097154 2796204 699051 0 0 -nan -nan
2	221077118 15932955 1330853 1330853 2796205 3489213 693009 0 0 -nan -nan
vector 3  simple_scenario_network.node[3].content_store  hit_node[3]  ETV
3	237010147 15202563 1330853 1330853 1 699051 699051 0 0 -nan -nan
3	252212710 15761940 1330853 1330853 699052 1398102 699051 0 0 -nan -nan
3	267974650 16068372 1330853 1330853 1398103 2097153 699051 0 0 -nan -nan
3	284043022 16070640 1330853 1330853 2097154 2796204 699051 0 0 -nan -nan
3	300113662 15933360 1330853 1330853 2796205 3489213 693009 0 0 -nan -nan
vector 4  simple_scenario_network.node[4].content_store  hit_node[4]  ETV
4	316047096 15203295 1330853 1330853 1 699051 699051 0 0 -nan -nan
4	331250391 15762090 1330853 1330853 699052 1398102 699051 0 0 -nan -nan
4	347012481 16068495 1330853 1330853 1398103 2097153 699051 0 0 -nan -nan
4	363080976 16070751 1330853 1330853 2097154 2796204 699051 0 0 -nan -nan
4	379151727 15932955 1330853 1330853 2796205 3489213 693009 0 0 -nan -nan
vector 5  simple_scenario_network.client[0]  hdistance[0]  ETV
5	395084745 13254512 1330853 1330853 1 699051 699051 0 3 130124.9559997 390220.06216387
5	408339257 13681039 1330853 1330853 699052 1398102 699051 0 3 30419.53579354 91257.217861257
5	422020296 13981462 1330853 1330853 1398103 2097153 699051 0 3 19478.792824246 58435.758299775
5	436001758 13981268 1330853 1330853 2097154 2796204 699051 0 3 14954.877949954 44864.268533092
5	449983026 13860290 1330853 1330853 2796205 3489213 693009 0 3 12098.949484711 36296.697230504
