version 2
run General-0-20150626-20:00:25-14930
attr D lce
attr F spr
attr R lru
attr a 1
attr configname General
attr datetime 20150626-20:00:25
attr experiment General
attr inifile omnetpp.ini
attr iterationvars "$net=abilene, $rep=0, $a=1, $F=spr, $ttl=1000, $D=lce, $R=lru, $window=60, $variance=0.05, $mytime=1800"
attr iterationvars2 "$net=abilene, $rep=0, $a=1, $F=spr, $ttl=1000, $D=lce, $R=lru, $window=60, $variance=0.05, $mytime=1800, $repetition=0"
attr measurement "$net=abilene, $rep=0, $a=1, $F=spr, $ttl=1000, $D=lce, $R=lru, $window=60, $variance=0.05, $mytime=1800"
attr mytime 1800
attr net abilene
attr network networks.${net=abilene}_network
attr processid 14930
attr rep 0
attr repetition 0
attr replication #0
attr resultdir results
attr runnumber 0
attr seedset 0
attr ttl 1000
attr variance 0.05
attr window 60

vector 0  abilene_network.node[0].content_store  hit_node[0]  ETV
0	376965	1	0.59354838709677
0	376965	2	0.46788990825688
0	376965	3	0.23076923076923
0	376965	4	0.3265306122449
0	376965	5	0.17948717948718
0	376965	6	0.13636363636364
0	376965	7	0.1875
0	376965	8	0.18518518518519
0	376965	9	0.19047619047619
0	376965	10	0.125
0	376965	11	0.071428571428571
0	376965	12	0.125
0	376965	13	0.15384615384615
0	376965	14	0
0	376965	15	0.16666666666667
0	376965	16	0
0	376965	17	0.14285714285714
0	376965	18	0.0625
0	376965	19	0
0	376965	20	0
0	376965	21	0
0	376965	22	0.11111111111111
0	376965	23	0.066666666666667
0	376965	24	0.076923076923077
0	376965	25	0
0	376965	26	0
0	376965	27	0
0	376965	28	0
0	376965	29	0
0	376965	30	0
0	376965	31	0
0	376965	32	0
0	376965	33	0
0	376965	34	0.090909090909091
0	376965	35	0
0	376965	36	0
0	376965	37	0
0	376965	38	0
0	376965	39	0
0	376965	40	0
0	376965	41	0
0	376965	42	0
0	376965	43	0
0	376965	44	0
0	376965	45	-nan
0	376965	46	0
0	376965	47	0
0	376965	48	0
0	376965	49	0
0	376965	50	0
0	376965	51	0
0	376965	52	0
0	376965	53	0
0	376965	54	0
0	376965	55	0
0	376965	56	0
0	376965	57	0
0	376965	58	0
0	376965	59	0
0	376965	60	0
0	376965	61	0
0	376965	62	0
0	376965	63	0
0	376965	64	0
0	376965	65	0
0	376965	66	0
0	376965	67	0
0	376965	68	0.5
0	376965	69	0
0	376965	70	0
0	376965	71	0
0	376965	72	0
0	376965	73	0
0	376965	74	0
0	376965	75	0
0	376965	76	0
vector 1  abilene_network.node[1].content_store  hit_node[1]  ETV
1	376965	1	0.47798742138365
1	376965	2	0.31944444444444
1	376965	3	0.23611111111111
1	376965	4	0.27692307692308
1	376965	5	0.14035087719298
1	376965	6	0.054794520547945
1	376965	7	0.056338028169014
1	376965	8	0.060606060606061
1	376965	9	0.12068965517241
1	376965	10	0.14285714285714
1	376965	11	0.052631578947368
1	376965	12	0.046511627906977
1	376965	13	0.047619047619048
1	376965	14	0.060606060606061
1	376965	15	0.088235294117647
1	376965	16	0.035714285714286
1	376965	17	0.038461538461538
1	376965	18	0.024390243902439
1	376965	19	0.043478260869565
1	376965	20	0.13636363636364
1	376965	21	0.095238095238095
1	376965	22	0
1	376965	23	0.074074074074074
1	376965	24	0
1	376965	25	0
1	376965	26	0.045454545454545
1	376965	27	0.047619047619048
1	376965	28	0
1	376965	29	0.1
1	376965	30	0
1	376965	31	0
1	376965	32	0
1	376965	33	0
1	376965	34	0
1	376965	35	0
1	376965	36	0
1	376965	37	0
1	376965	38	0
1	376965	39	0.071428571428571
1	376965	40	0
1	376965	41	0.066666666666667
1	376965	42	0
1	376965	43	0.076923076923077
1	376965	44	0
1	376965	45	0
1	376965	46	0.13333333333333
1	376965	47	0
1	376965	48	0
1	376965	49	0
1	376965	50	0
1	376965	51	0
1	376965	52	0
1	376965	53	0
1	376965	54	0
1	376965	55	0
1	376965	56	0
1	376965	57	0
1	376965	58	0
1	376965	59	0
1	376965	60	0
1	376965	61	0
1	376965	62	0
1	376965	63	0
1	376965	64	0
1	376965	65	0
1	376965	66	0
1	376965	67	0
1	376965	68	0
1	376965	69	0
1	376965	70	0
1	376965	71	0.076923076923077
1	376965	72	0.071428571428571
1	376965	73	0
1	376965	74	0
1	376965	75	0
1	376965	76	0
vector 2  abilene_network.node[2].content_store  hit_node[2]  ETV
2	376965	1	0.40730337078652
2	376965	2	0.19067796610169
2	376965	3	0.13872832369942
2	376965	4	0.16666666666667
2	376965	5	0.11029411764706
2	376965	6	0.041666666666667
2	376965	7	0.067415730337079
2	376965	8	0.012345679012346
2	376965	9	0.056338028169014
2	376965	10	0.03125
2	376965	11	0.040816326530612
2	376965	12	0.035714285714286
2	376965	13	0.053571428571429
2	376965	14	0.063829787234043
2	376965	15	0.025641025641026
2	376965	16	0.021276595744681
2	376965	17	0.027777777777778
2	376965	18	0
2	376965	19	0.03448275862069
2	376965	20	0
2	376965	21	0.096774193548387
2	376965	22	0
2	376965	23	0.027777777777778
2	376965	24	0
2	376965	25	0
2	376965	26	0
2	376965	27	0.043478260869565
2	376965	28	0
2	376965	29	0
2	376965	30	0
2	376965	31	0
2	376965	32	0.052631578947368
2	376965	33	0.045454545454545
2	376965	34	0
2	376965	35	0.14285714285714
2	376965	36	0
2	376965	37	0.055555555555556
2	376965	38	0
2	376965	39	0
2	376965	40	0.0625
2	376965	41	0
2	376965	42	0
2	376965	43	0.071428571428571
2	376965	44	0
2	376965	45	0
2	376965	46	0
2	376965	47	0
2	376965	48	0
2	376965	49	0
2	376965	50	0
2	376965	51	0
2	376965	52	0
2	376965	53	0
2	376965	54	0
2	376965	55	0
2	376965	56	0
2	376965	57	0
2	376965	58	0
2	376965	59	0
2	376965	60	0
2	376965	61	0
2	376965	62	0
2	376965	63	0
2	376965	64	0
2	376965	65	0
2	376965	66	0
2	376965	67	0
2	376965	68	0
2	376965	69	0
2	376965	70	0
2	376965	71	0
2	376965	72	0
2	376965	73	0
2	376965	74	0
2	376965	75	0
2	376965	76	0
vector 3  abilene_network.node[3].content_store  hit_node[3]  ETV
3	376965	1	0.33823529411765
3	376965	2	0.17753623188406
3	376965	3	0.1
3	376965	4	0.088050314465409
3	376965	5	0.10919540229885
3	376965	6	0.049586776859504
3	376965	7	0.065420560747664
3	376965	8	0.03030303030303
3	376965	9	0.022727272727273
3	376965	10	0.012820512820513
3	376965	11	0.030769230769231
3	376965	12	0
3	376965	13	0
3	376965	14	0.037037037037037
3	376965	15	0.020408163265306
3	376965	16	0.016666666666667
3	376965	17	0.020408163265306
3	376965	18	0.018181818181818
3	376965	19	0.022222222222222
3	376965	20	0
3	376965	21	0
3	376965	22	0
3	376965	23	0
3	376965	24	0
3	376965	25	0
3	376965	26	0.024390243902439
3	376965	27	0
3	376965	28	0.058823529411765
3	376965	29	0
3	376965	30	0
3	376965	31	0
3	376965	32	0
3	376965	33	0
3	376965	34	0
3	376965	35	0
3	376965	36	0
3	376965	37	0
3	376965	38	0
3	376965	39	0.033333333333333
3	376965	40	0
3	376965	41	0.037037037037037
3	376965	42	0
3	376965	43	0
3	376965	44	0
3	376965	45	0
3	376965	46	0.045454545454545
3	376965	47	0
3	376965	48	0
3	376965	49	0
3	376965	50	0
3	376965	51	0
3	376965	52	0
3	376965	53	0
3	376965	54	0
3	376965	55	0
3	376965	56	0
3	376965	57	0
3	376965	58	0
3	376965	59	0
3	376965	60	0
3	376965	61	0
3	376965	62	0
3	376965	63	0
3	376965	64	0
3	376965	65	0
3	376965	66	0
3	376965	67	0
3	376965	68	0
3	376965	69	0
3	376965	70	0.083333333333333
3	376965	71	0
3	376965	72	0
3	376965	73	0
3	376965	74	0
3	376965	75	0
3	376965	76	0
vector 4  abilene_network.node[4].content_store  hit_node[4]  ETV
4	376965	1	0.26984126984127
4	376965	2	0.17133956386293
4	376965	3	0.10878661087866
4	376965	4	0.064864864864865
4	376965	5	0.063829787234043
4	376965	6	0.059701492537313
4	376965	7	0.067669172932331
4	376965	8	0.024590163934426
4	376965	9	0.037037037037037
4	376965	10	0.010752688172043
4	376965	11	0.064935064935065
4	376965	12	0.013698630136986
4	376965	13	0.042253521126761
4	376965	14	0.016129032258065
4	376965	15	0
4	376965	16	0.013888888888889
4	376965	17	0
4	376965	18	0.047619047619048
4	376965	19	0
4	376965	20	0
4	376965	21	0.07843137254902
4	376965	22	0
4	376965	23	0.040816326530612
4	376965	24	0
4	376965	25	0
4	376965	26	0
4	376965	27	0
4	376965	28	0
4	376965	29	0.025641025641026
4	376965	30	0.027027027027027
4	376965	31	0
4	376965	32	0
4	376965	33	0
4	376965	34	0
4	376965	35	0
4	376965	36	0
4	376965	37	0.066666666666667
4	376965	38	0
4	376965	39	0
4	376965	40	0.035714285714286
4	376965	41	0
4	376965	42	0
4	376965	43	0.14285714285714
4	376965	44	0
4	376965	45	0
4	376965	46	0
4	376965	47	0
4	376965	48	0
4	376965	49	0
4	376965	50	0
4	376965	51	0
4	376965	52	0
4	376965	53	0.045454545454545
4	376965	54	0
4	376965	55	0
4	376965	56	0
4	376965	57	0
4	376965	58	0
4	376965	59	0
4	376965	60	0
4	376965	61	0
4	376965	62	0
4	376965	63	0
4	376965	64	0
4	376965	65	0
4	376965	66	0
4	376965	67	0
4	376965	68	0
4	376965	69	0
4	376965	70	0
4	376965	71	0
4	376965	72	0.052631578947368
4	376965	73	0
4	376965	74	0
4	376965	75	0
4	376965	76	0
vector 5  abilene_network.node[5].content_store  hit_node[5]  ETV
5	376965	1	0.29268292682927
5	376965	2	0.18587360594796
5	376965	3	0.13207547169811
5	376965	4	0.10876132930514
5	376965	5	0.10032362459547
5	376965	6	0.09765625
5	376965	7	0.08411214953271
5	376965	8	0.062200956937799
5	376965	9	0.026881720430108
5	376965	10	0.051428571428571
5	376965	11	0.038961038961039
5	376965	12	0.033112582781457
5	376965	13	0.078014184397163
5	376965	14	0.026548672566372
5	376965	15	0.042372881355932
5	376965	16	0.015384615384615
5	376965	17	0.027027027027027
5	376965	18	0.036036036036036
5	376965	19	0.01980198019802
5	376965	20	0.037037037037037
5	376965	21	0.032608695652174
5	376965	22	0.03921568627451
5	376965	23	0
5	376965	24	0.035714285714286
5	376965	25	0.013888888888889
5	376965	26	0.057142857142857
5	376965	27	0.039473684210526
5	376965	28	0.013157894736842
5	376965	29	0.054794520547945
5	376965	30	0
5	376965	31	0.03125
5	376965	32	0.035714285714286
5	376965	33	0.016666666666667
5	376965	34	0.044776119402985
5	376965	35	0.025
5	376965	36	0.017241379310345
5	376965	37	0.065573770491803
5	376965	38	0.016949152542373
5	376965	39	0.084745762711864
5	376965	40	0
5	376965	41	0.019607843137255
5	376965	42	0.02
5	376965	43	0
5	376965	44	0.016666666666667
5	376965	45	0
5	376965	46	0
5	376965	47	0
5	376965	48	0.051282051282051
5	376965	49	0.03125
5	376965	50	0.041666666666667
5	376965	51	0.023255813953488
5	376965	52	0
5	376965	53	0
5	376965	54	0
5	376965	55	0
5	376965	56	0
5	376965	57	0
5	376965	58	0
5	376965	59	0.03448275862069
5	376965	60	0
5	376965	61	0
5	376965	62	0
5	376965	63	0
5	376965	64	0
5	376965	65	0.033333333333333
5	376965	66	0
5	376965	67	0
5	376965	68	0
5	376965	69	0
5	376965	70	0
5	376965	71	0.060606060606061
5	376965	72	0.029411764705882
5	376965	73	0
5	376965	74	0
5	376965	75	0
5	376965	76	0
vector 6  abilene_network.node[6].content_store  hit_node[6]  ETV
6	376965	1	0.38753387533875
6	376965	2	0.18099547511312
6	376965	3	0.18681318681319
6	376965	4	0.11278195488722
6	376965	5	0.076190476190476
6	376965	6	0.076923076923077
6	376965	7	0.083333333333333
6	376965	8	0.068493150684932
6	376965	9	0.084507042253521
6	376965	10	0.068493150684932
6	376965	11	0.058823529411765
6	376965	12	0
6	376965	13	0.017857142857143
6	376965	14	0.0625
6	376965	15	0.019607843137255
6	376965	16	0.08
6	376965	17	0.025
6	376965	18	0
6	376965	19	0
6	376965	20	0.032258064516129
6	376965	21	0.0625
6	376965	22	0.047619047619048
6	376965	23	0.083333333333333
6	376965	24	0
6	376965	25	0
6	376965	26	0.045454545454545
6	376965	27	0
6	376965	28	0.066666666666667
6	376965	29	0
6	376965	30	0
6	376965	31	0.058823529411765
6	376965	32	0
6	376965	33	0.038461538461538
6	376965	34	0.04
6	376965	35	0
6	376965	36	0
6	376965	37	0
6	376965	38	0.090909090909091
6	376965	39	0.038461538461538
6	376965	40	0
6	376965	41	0
6	376965	42	0
6	376965	43	0
6	376965	44	0
6	376965	45	0
6	376965	46	0
6	376965	47	0
6	376965	48	0
6	376965	49	0
6	376965	50	0
6	376965	51	0
6	376965	52	0
6	376965	53	0.055555555555556
6	376965	54	0
6	376965	55	0
6	376965	56	0
6	376965	57	0.066666666666667
6	376965	58	0
6	376965	59	0
6	376965	60	0
6	376965	61	0
6	376965	62	0
6	376965	63	0.058823529411765
6	376965	64	0
6	376965	65	0
6	376965	66	0
6	376965	67	0
6	376965	68	0
6	376965	69	0
6	376965	70	0
6	376965	71	0
6	376965	72	0
6	376965	73	0
6	376965	74	0
6	376965	75	0
6	376965	76	0.125
vector 7  abilene_network.node[7].content_store  hit_node[7]  ETV
7	376965	1	0.38907849829352
7	376965	2	0.25268817204301
7	376965	3	0.24087591240876
7	376965	4	0.125
7	376965	5	0.13636363636364
7	376965	6	0.17525773195876
7	376965	7	0.076923076923077
7	376965	8	0.13114754098361
7	376965	9	0.019230769230769
7	376965	10	0.076923076923077
7	376965	11	0.037037037037037
7	376965	12	0.043478260869565
7	376965	13	0.076923076923077
7	376965	14	0.055555555555556
7	376965	15	0.054054054054054
7	376965	16	0.027777777777778
7	376965	17	0.066666666666667
7	376965	18	0
7	376965	19	0
7	376965	20	0.055555555555556
7	376965	21	0.043478260869565
7	376965	22	0.066666666666667
7	376965	23	0
7	376965	24	0.045454545454545
7	376965	25	0.047619047619048
7	376965	26	0.052631578947368
7	376965	27	0.041666666666667
7	376965	28	0
7	376965	29	0
7	376965	30	0
7	376965	31	0
7	376965	32	0.14285714285714
7	376965	33	0
7	376965	34	0
7	376965	35	0
7	376965	36	0
7	376965	37	0
7	376965	38	0
7	376965	39	0
7	376965	40	0
7	376965	41	0
7	376965	42	0
7	376965	43	0.066666666666667
7	376965	44	0
7	376965	45	0
7	376965	46	0
7	376965	47	0
7	376965	48	0
7	376965	49	0
7	376965	50	0.0625
7	376965	51	0
7	376965	52	0
7	376965	53	0
7	376965	54	0
7	376965	55	0
7	376965	56	0
7	376965	57	0.125
7	376965	58	0
7	376965	59	0
7	376965	60	0
7	376965	61	0
7	376965	62	0.066666666666667
7	376965	63	0
7	376965	64	0.1
7	376965	65	0
7	376965	66	0
7	376965	67	0
7	376965	68	0
7	376965	69	0
7	376965	70	0
7	376965	71	0
7	376965	72	0
7	376965	73	0
7	376965	74	0
7	376965	75	0.14285714285714
7	376965	76	0
vector 8  abilene_network.node[8].content_store  hit_node[8]  ETV
8	376965	1	0.52674897119342
8	376965	2	0.35416666666667
8	376965	3	0.21739130434783
8	376965	4	0.24691358024691
8	376965	5	0.15384615384615
8	376965	6	0.15492957746479
8	376965	7	0.024390243902439
8	376965	8	0.15384615384615
8	376965	9	0.2
8	376965	10	0
8	376965	11	0.097560975609756
8	376965	12	0.055555555555556
8	376965	13	0.09375
8	376965	14	0.055555555555556
8	376965	15	0.08695652173913
8	376965	16	0.04
8	376965	17	0
8	376965	18	0.052631578947368
8	376965	19	0
8	376965	20	0
8	376965	21	0.15384615384615
8	376965	22	0.05
8	376965	23	0
8	376965	24	0.058823529411765
8	376965	25	0.066666666666667
8	376965	26	0
8	376965	27	0
8	376965	28	0
8	376965	29	0
8	376965	30	0
8	376965	31	0
8	376965	32	0
8	376965	33	0
8	376965	34	0
8	376965	35	0
8	376965	36	0
8	376965	37	0
8	376965	38	0
8	376965	39	0.058823529411765
8	376965	40	0
8	376965	41	0.1
8	376965	42	0
8	376965	43	0.083333333333333
8	376965	44	0
8	376965	45	0.25
8	376965	46	0
8	376965	47	0
8	376965	48	0
8	376965	49	0
8	376965	50	0
8	376965	51	0
8	376965	52	0
8	376965	53	0
8	376965	54	0
8	376965	55	0
8	376965	56	0.2
8	376965	57	0
8	376965	58	0
8	376965	59	0
8	376965	60	0
8	376965	61	0
8	376965	62	0
8	376965	63	0
8	376965	64	0
8	376965	65	0.125
8	376965	66	0
8	376965	67	0
8	376965	68	0
8	376965	69	0
8	376965	70	0
8	376965	71	0.16666666666667
8	376965	72	0
8	376965	73	0
8	376965	74	0
8	376965	75	0
8	376965	76	0
vector 9  abilene_network.node[9].content_store  hit_node[9]  ETV
9	376965	1	0.70707070707071
9	376965	2	0.31764705882353
9	376965	3	0.29508196721311
9	376965	4	0.2
9	376965	5	0.15384615384615
9	376965	6	0.20454545454545
9	376965	7	0.055555555555556
9	376965	8	0.066666666666667
9	376965	9	0.13636363636364
9	376965	10	0.0625
9	376965	11	0
9	376965	12	0
9	376965	13	0.066666666666667
9	376965	14	0.21428571428571
9	376965	15	0
9	376965	16	0
9	376965	17	0
9	376965	18	0.2
9	376965	19	0.083333333333333
9	376965	20	0
9	376965	21	0.18181818181818
9	376965	22	0.11764705882353
9	376965	23	0
9	376965	24	0
9	376965	25	0
9	376965	26	0
9	376965	27	0
9	376965	28	0
9	376965	29	0
9	376965	30	0
9	376965	31	0
9	376965	32	0
9	376965	33	0
9	376965	34	0
9	376965	35	0
9	376965	36	0.11111111111111
9	376965	37	0
9	376965	38	0
9	376965	39	0
9	376965	40	0
9	376965	41	0
9	376965	42	0
9	376965	43	0
9	376965	44	0
9	376965	45	0
9	376965	46	0
9	376965	47	0
9	376965	48	0
9	376965	49	0
9	376965	50	0
9	376965	51	0
9	376965	52	0
9	376965	53	0
9	376965	54	0
9	376965	55	0
9	376965	56	0
9	376965	57	0
9	376965	58	0
9	376965	59	0
9	376965	60	0
9	376965	61	0
9	376965	62	0
9	376965	63	0
9	376965	64	0
9	376965	65	0
9	376965	66	0
9	376965	67	0
9	376965	68	0
9	376965	69	0
9	376965	70	0
9	376965	71	0
9	376965	72	0
9	376965	73	0
9	376965	74	0
9	376965	75	0
9	376965	76	0
vector 10  abilene_network.node[10].content_store  hit_node[10]  ETV
10	376965	1	0.66480446927374
10	376965	2	0.40217391304348
10	376965	3	0.26470588235294
10	376965	4	0.25
10	376965	5	0.26
10	376965	6	0.10344827586207
10	376965	7	0.0625
10	376965	8	0.16666666666667
10	376965	9	0.21052631578947
10	376965	10	0.074074074074074
10	376965	11	0.18181818181818
10	376965	12	0.15384615384615
10	376965	13	0
10	376965	14	0
10	376965	15	0.1
10	376965	16	0.071428571428571
10	376965	17	0.076923076923077
10	376965	18	0
10	376965	19	0
10	376965	20	0
10	376965	21	0
10	376965	22	0.076923076923077
10	376965	23	0
10	376965	24	0.11111111111111
10	376965	25	0
10	376965	26	0
10	376965	27	0
10	376965	28	0
10	376965	29	0
10	376965	30	0.14285714285714
10	376965	31	0.2
10	376965	32	0
10	376965	33	0
10	376965	34	0.083333333333333
10	376965	35	0
10	376965	36	0
10	376965	37	0
10	376965	38	0
10	376965	39	0
10	376965	40	0
10	376965	41	0
10	376965	42	0
10	376965	43	0
10	376965	44	0
10	376965	45	0
10	376965	46	0
10	376965	47	0
10	376965	48	0
10	376965	49	0
10	376965	50	0
10	376965	51	0.22222222222222
10	376965	52	0
10	376965	53	0
10	376965	54	0
10	376965	55	0
10	376965	56	0
10	376965	57	0
10	376965	58	0
10	376965	59	0
10	376965	60	0
10	376965	61	0
10	376965	62	0
10	376965	63	0
10	376965	64	0
10	376965	65	0
10	376965	66	0
10	376965	67	0
10	376965	68	0
10	376965	69	0
10	376965	70	0
10	376965	71	0
10	376965	72	0
10	376965	73	0
10	376965	74	-nan
10	376965	75	0
10	376965	76	0
vector 11  abilene_network.client[0]  hdistance[0].real  ETV
11	376965	1	0.98064516129032
11	376965	2	2.0642201834862
11	376965	3	3.1730769230769
11	376965	4	3.1632653061224
11	376965	5	4
11	376965	6	5.1818181818182
11	376965	7	4.5625
11	376965	8	4.7037037037037
11	376965	9	4.7619047619048
11	376965	10	4.9375
11	376965	11	5.5714285714286
11	376965	12	4.9375
11	376965	13	4.3076923076923
11	376965	14	5.375
11	376965	15	4.5833333333333
11	376965	16	6
11	376965	17	4.5714285714286
11	376965	18	5.3125
11	376965	19	5.3333333333333
11	376965	20	5.0909090909091
11	376965	21	6
11	376965	22	5.3333333333333
11	376965	23	5.2666666666667
11	376965	24	5.5384615384615
11	376965	25	6
11	376965	26	5.1666666666667
11	376965	27	5.875
11	376965	28	6
11	376965	29	5.4545454545455
11	376965	30	6
11	376965	31	6
11	376965	32	6
11	376965	33	6
11	376965	34	5.4545454545455
11	376965	35	6
11	376965	36	6
11	376965	37	5.5
11	376965	38	6
11	376965	39	5.25
11	376965	40	5.3333333333333
11	376965	41	6
11	376965	42	6
11	376965	43	2
11	376965	44	6
11	376965	45	0
11	376965	46	4.5714285714286
11	376965	47	6
11	376965	48	6
11	376965	49	6
11	376965	50	6
11	376965	51	6
11	376965	52	6
11	376965	53	5.6666666666667
11	376965	54	6
11	376965	55	6
11	376965	56	6
11	376965	57	6
11	376965	58	6
11	376965	59	5.75
11	376965	60	6
11	376965	61	6
11	376965	62	6
11	376965	63	6
11	376965	64	6
11	376965	65	6
11	376965	66	6
11	376965	67	6
11	376965	68	3
11	376965	69	6
11	376965	70	6
11	376965	71	6
11	376965	72	6
11	376965	73	6
11	376965	74	6
11	376965	75	6
11	376965	76	6
vector 12  abilene_network.client[1]  hdistance[1].real  ETV
12	376965	1	1.5179487179487
12	376965	2	2.6019417475728
12	376965	3	3.3333333333333
12	376965	4	2.6896551724138
12	376965	5	3.8444444444444
12	376965	6	4.0714285714286
12	376965	7	4.5
12	376965	8	4.1052631578947
12	376965	9	3.8846153846154
12	376965	10	3.8823529411765
12	376965	11	4.1875
12	376965	12	4.7222222222222
12	376965	13	4.8235294117647
12	376965	14	4.6153846153846
12	376965	15	4.6
12	376965	16	5
12	376965	17	5
12	376965	18	5
12	376965	19	4.4444444444444
12	376965	20	4.1666666666667
12	376965	21	4.0909090909091
12	376965	22	4.9230769230769
12	376965	23	5
12	376965	24	5
12	376965	25	5
12	376965	26	5
12	376965	27	4
12	376965	28	4.6666666666667
12	376965	29	4.2857142857143
12	376965	30	5
12	376965	31	5
12	376965	32	5
12	376965	33	5
12	376965	34	5
12	376965	35	5
12	376965	36	5
12	376965	37	5
12	376965	38	4.75
12	376965	39	4
12	376965	40	5
12	376965	41	5
12	376965	42	5
12	376965	43	4
12	376965	44	5
12	376965	45	5
12	376965	46	5
12	376965	47	5
12	376965	48	5
12	376965	49	5
12	376965	50	5
12	376965	51	5
12	376965	52	5
12	376965	53	5
12	376965	54	0
12	376965	55	5
12	376965	56	5
12	376965	57	5
12	376965	58	5
12	376965	59	5
12	376965	60	5
12	376965	61	5
12	376965	62	5
12	376965	63	5
12	376965	64	5
12	376965	65	5
12	376965	66	5
12	376965	67	5
12	376965	68	0
12	376965	69	5
12	376965	70	4
12	376965	71	4
12	376965	72	3.6
12	376965	73	5
12	376965	74	0
12	376965	75	5
12	376965	76	5
vector 13  abilene_network.client[2]  hdistance[2].real  ETV
13	376965	1	1.4607329842932
13	376965	2	2.3483146067416
13	376965	3	3.0634920634921
13	376965	4	2.52
13	376965	5	2.6315789473684
13	376965	6	3.4444444444444
13	376965	7	2.9545454545455
13	376965	8	3.7368421052632
13	376965	9	3.4285714285714
13	376965	10	3.9375
13	376965	11	3.3846153846154
13	376965	12	3.7333333333333
13	376965	13	3.25
13	376965	14	3.25
13	376965	15	3.125
13	376965	16	3.8
13	376965	17	4
13	376965	18	3.4
13	376965	19	3.8571428571429
13	376965	20	3.8333333333333
13	376965	21	3.25
13	376965	22	3.875
13	376965	23	3.4545454545455
13	376965	24	4
13	376965	25	4
13	376965	26	4
13	376965	27	4
13	376965	28	4
13	376965	29	4
13	376965	30	4
13	376965	31	3.875
13	376965	32	3.2
13	376965	33	4
13	376965	34	4
13	376965	35	3
13	376965	36	4
13	376965	37	3.4285714285714
13	376965	38	4
13	376965	39	4
13	376965	40	4
13	376965	41	4
13	376965	42	4
13	376965	43	4
13	376965	44	3.8333333333333
13	376965	45	4
13	376965	46	4
13	376965	47	4
13	376965	48	4
13	376965	49	4
13	376965	50	3.75
13	376965	51	4
13	376965	52	4
13	376965	53	4
13	376965	54	4
13	376965	55	4
13	376965	56	4
13	376965	57	4
13	376965	58	4
13	376965	59	4
13	376965	60	4
13	376965	61	4
13	376965	62	4
13	376965	63	4
13	376965	64	4
13	376965	65	4
13	376965	66	4
13	376965	67	0
13	376965	68	4
13	376965	69	4
13	376965	70	4
13	376965	71	4
13	376965	72	4
13	376965	73	4
13	376965	74	4
13	376965	75	4
13	376965	76	4
vector 14  abilene_network.client[3]  hdistance[3].real  ETV
14	376965	1	1.3857868020305
14	376965	2	1.9411764705882
14	376965	3	1.843137254902
14	376965	4	2.3076923076923
14	376965	5	2.2641509433962
14	376965	6	2.5172413793103
14	376965	7	2.2083333333333
14	376965	8	2.4210526315789
14	376965	9	2.8095238095238
14	376965	10	2.8125
14	376965	11	3
14	376965	12	3
14	376965	13	2.875
14	376965	14	2.4
14	376965	15	3
14	376965	16	2.7857142857143
14	376965	17	2.7857142857143
14	376965	18	2.6
14	376965	19	2.8235294117647
14	376965	20	3
14	376965	21	3
14	376965	22	3
14	376965	23	3
14	376965	24	2.8888888888889
14	376965	25	3
14	376965	26	2.6666666666667
14	376965	27	3
14	376965	28	2.875
14	376965	29	2.8
14	376965	30	3
14	376965	31	3
14	376965	32	2.8
14	376965	33	3
14	376965	34	2.75
14	376965	35	3
14	376965	36	3
14	376965	37	3
14	376965	38	3
14	376965	39	2.8888888888889
14	376965	40	2.75
14	376965	41	2.7272727272727
14	376965	42	3
14	376965	43	2
14	376965	44	3
14	376965	45	3
14	376965	46	2.5
14	376965	47	3
14	376965	48	3
14	376965	49	3
14	376965	50	2.8571428571429
14	376965	51	2.8333333333333
14	376965	52	3
14	376965	53	3
14	376965	54	3
14	376965	55	3
14	376965	56	3
14	376965	57	3
14	376965	58	3
14	376965	59	3
14	376965	60	0
14	376965	61	3
14	376965	62	3
14	376965	63	3
14	376965	64	3
14	376965	65	3
14	376965	66	3
14	376965	67	3
14	376965	68	3
14	376965	69	3
14	376965	70	3
14	376965	71	3
14	376965	72	3
14	376965	73	3
14	376965	74	3
14	376965	75	3
14	376965	76	3
vector 15  abilene_network.client[4]  hdistance[4].real  ETV
15	376965	1	1.0174418604651
15	376965	2	1.3936170212766
15	376965	3	1.2881355932203
15	376965	4	1.7
15	376965	5	1.6363636363636
15	376965	6	1.2105263157895
15	376965	7	1.6666666666667
15	376965	8	1.6538461538462
15	376965	9	1.6818181818182
15	376965	10	1.875
15	376965	11	1.2857142857143
15	376965	12	1.6666666666667
15	376965	13	1.5
15	376965	14	1.8
15	376965	15	2
15	376965	16	1.8461538461538
15	376965	17	2
15	376965	18	1.7777777777778
15	376965	19	2
15	376965	20	2
15	376965	21	1.5625
15	376965	22	2
15	376965	23	1.75
15	376965	24	2
15	376965	25	2
15	376965	26	2
15	376965	27	2
15	376965	28	2
15	376965	29	1.8
15	376965	30	1.7142857142857
15	376965	31	2
15	376965	32	2
15	376965	33	2
15	376965	34	1.8333333333333
15	376965	35	2
15	376965	36	2
15	376965	37	1.5
15	376965	38	2
15	376965	39	2
15	376965	40	2
15	376965	41	2
15	376965	42	0
15	376965	43	1.3333333333333
15	376965	44	2
15	376965	45	2
15	376965	46	2
15	376965	47	2
15	376965	48	1.8333333333333
15	376965	49	2
15	376965	50	2
15	376965	51	2
15	376965	52	2
15	376965	53	2
15	376965	54	2
15	376965	55	2
15	376965	56	2
15	376965	57	2
15	376965	58	2
15	376965	59	2
15	376965	60	2
15	376965	61	2
15	376965	62	2
15	376965	63	2
15	376965	64	0
15	376965	65	2
15	376965	66	2
15	376965	67	2
15	376965	68	2
15	376965	69	2
15	376965	70	2
15	376965	71	2
15	376965	72	2
15	376965	73	2
15	376965	74	2
15	376965	75	2
15	376965	76	2
vector 16  abilene_network.client[5]  hdistance[5].real  ETV
16	376965	1	0.64736842105263
16	376965	2	0.72527472527473
16	376965	3	0.71428571428571
16	376965	4	0.875
16	376965	5	0.77777777777778
16	376965	6	0.90909090909091
16	376965	7	0.92307692307692
16	376965	8	0.95454545454545
16	376965	9	0.94117647058824
16	376965	10	1
16	376965	11	0.88888888888889
16	376965	12	1
16	376965	13	0.88888888888889
16	376965	14	0.71428571428571
16	376965	15	0.90909090909091
16	376965	16	1
16	376965	17	0.93333333333333
16	376965	18	0.9375
16	376965	19	1
16	376965	20	0.91666666666667
16	376965	21	1
16	376965	22	0.875
16	376965	23	1
16	376965	24	1
16	376965	25	0.92857142857143
16	376965	26	0.83333333333333
16	376965	27	1
16	376965	28	1
16	376965	29	0.91666666666667
16	376965	30	1
16	376965	31	1
16	376965	32	0.90909090909091
16	376965	33	1
16	376965	34	1
16	376965	35	0.85714285714286
16	376965	36	0.8
16	376965	37	1
16	376965	38	1
16	376965	39	0.5
16	376965	40	1
16	376965	41	0.85714285714286
16	376965	42	1
16	376965	43	1
16	376965	44	1
16	376965	45	1
16	376965	46	1
16	376965	47	1
16	376965	48	0
16	376965	49	1
16	376965	50	1
16	376965	51	1
16	376965	52	0
16	376965	53	1
16	376965	54	1
16	376965	55	1
16	376965	56	1
16	376965	57	0
16	376965	58	1
16	376965	59	1
16	376965	60	1
16	376965	61	1
16	376965	62	1
16	376965	63	1
16	376965	64	1
16	376965	65	1
16	376965	66	0
16	376965	67	1
16	376965	68	1
16	376965	69	1
16	376965	70	1
16	376965	71	1
16	376965	72	1
16	376965	73	0
16	376965	74	1
16	376965	75	1
16	376965	76	1
vector 17  abilene_network.client[6]  hdistance[6].real  ETV
17	376965	1	0.82198952879581
17	376965	2	1.2560975609756
17	376965	3	1.3205128205128
17	376965	4	1.4761904761905
17	376965	5	1.551724137931
17	376965	6	1.5405405405405
17	376965	7	1.4166666666667
17	376965	8	1.65
17	376965	9	1.7
17	376965	10	1.76
17	376965	11	1.75
17	376965	12	1.9230769230769
17	376965	13	1.8
17	376965	14	1.8571428571429
17	376965	15	1.8125
17	376965	16	1.6666666666667
17	376965	17	1.8333333333333
17	376965	18	1.875
17	376965	19	1.9
17	376965	20	1.8571428571429
17	376965	21	1.6
17	376965	22	2
17	376965	23	1.7777777777778
17	376965	24	2
17	376965	25	2
17	376965	26	2
17	376965	27	1.9
17	376965	28	2
17	376965	29	2
17	376965	30	2
17	376965	31	1.4
17	376965	32	2
17	376965	33	1.4
17	376965	34	1.4
17	376965	35	2
17	376965	36	2
17	376965	37	2
17	376965	38	1.7142857142857
17	376965	39	1.5
17	376965	40	2
17	376965	41	2
17	376965	42	2
17	376965	43	2
17	376965	44	2
17	376965	45	2
17	376965	46	2
17	376965	47	2
17	376965	48	2
17	376965	49	2
17	376965	50	2
17	376965	51	2
17	376965	52	2
17	376965	53	1.6
17	376965	54	2
17	376965	55	2
17	376965	56	2
17	376965	57	0
17	376965	58	2
17	376965	59	2
17	376965	60	2
17	376965	61	2
17	376965	62	2
17	376965	63	1.5
17	376965	64	2
17	376965	65	2
17	376965	66	2
17	376965	67	2
17	376965	68	2
17	376965	69	0
17	376965	70	0
17	376965	71	1.8
17	376965	72	2
17	376965	73	2
17	376965	74	2
17	376965	75	2
17	376965	76	1.3333333333333
vector 18  abilene_network.client[7]  hdistance[7].real  ETV
18	376965	1	1.2022471910112
18	376965	2	1.7311827956989
18	376965	3	1.8
18	376965	4	2.3488372093023
18	376965	5	2.3636363636364
18	376965	6	1.8918918918919
18	376965	7	2.36
18	376965	8	2.3214285714286
18	376965	9	2.9
18	376965	10	2.68
18	376965	11	2.7647058823529
18	376965	12	2.5833333333333
18	376965	13	2.6
18	376965	14	2.4210526315789
18	376965	15	2.5625
18	376965	16	3
18	376965	17	2.4444444444444
18	376965	18	3
18	376965	19	3
18	376965	20	3
18	376965	21	2.75
18	376965	22	2.6363636363636
18	376965	23	3
18	376965	24	3
18	376965	25	2.5714285714286
18	376965	26	2.7
18	376965	27	3
18	376965	28	3
18	376965	29	3
18	376965	30	3
18	376965	31	3
18	376965	32	2.1428571428571
18	376965	33	3
18	376965	34	3
18	376965	35	3
18	376965	36	3
18	376965	37	3
18	376965	38	3
18	376965	39	3
18	376965	40	3
18	376965	41	3
18	376965	42	2.75
18	376965	43	3
18	376965	44	3
18	376965	45	3
18	376965	46	3
18	376965	47	3
18	376965	48	3
18	376965	49	3
18	376965	50	2
18	376965	51	3
18	376965	52	3
18	376965	53	3
18	376965	54	3
18	376965	55	3
18	376965	56	3
18	376965	57	2.4
18	376965	58	3
18	376965	59	3
18	376965	60	3
18	376965	61	3
18	376965	62	2.5714285714286
18	376965	63	3
18	376965	64	3
18	376965	65	3
18	376965	66	0
18	376965	67	3
18	376965	68	3
18	376965	69	3
18	376965	70	3
18	376965	71	3
18	376965	72	3
18	376965	73	3
18	376965	74	0
18	376965	75	3
18	376965	76	3
vector 19  abilene_network.client[8]  hdistance[8].real  ETV
19	376965	1	1.0756756756757
19	376965	2	1.6395348837209
19	376965	3	2.1632653061224
19	376965	4	2.2857142857143
19	376965	5	3
19	376965	6	2.9166666666667
19	376965	7	3.8333333333333
19	376965	8	2.92
19	376965	9	3.1904761904762
19	376965	10	3.5833333333333
19	376965	11	3.1428571428571
19	376965	12	3.5
19	376965	13	2.8888888888889
19	376965	14	3.4285714285714
19	376965	15	3.3076923076923
19	376965	16	3.3571428571429
19	376965	17	4
19	376965	18	3.6363636363636
19	376965	19	4
19	376965	20	3.6
19	376965	21	3
19	376965	22	4
19	376965	23	3.6666666666667
19	376965	24	3.2222222222222
19	376965	25	3.5555555555556
19	376965	26	3
19	376965	27	3.6666666666667
19	376965	28	3.5
19	376965	29	4
19	376965	30	4
19	376965	31	4