version 2
run General-13-20150311-18:59:39-28968
attr D lcd
attr F spr
attr R lru
attr a 0.8
attr configname General
attr datetime 20150311-18:59:39
attr experiment General
attr inifile omnetpp.ini
attr iterationvars "$net=abilene, $rep=0, $a=0.8, $F=spr, $ttl=1000, $D=lcd, $R=lru"
attr iterationvars2 "$net=abilene, $rep=0, $a=0.8, $F=spr, $ttl=1000, $D=lcd, $R=lru, $repetition=0"
attr measurement "$net=abilene, $rep=0, $a=0.8, $F=spr, $ttl=1000, $D=lcd, $R=lru"
attr net abilene
attr network networks.${net=abilene}_network
attr processid 28968
attr rep 0
attr repetition 0
attr replication #0
attr resultdir results
attr runnumber 13
attr seedset 0
attr ttl 1000

vector 0  abilene_network.node[0].content_store  hit_node[0]  ETV
0	1052899	1	1
0	1052899	2	1
0	1052899	3	1
0	1052899	4	1
0	1052899	5	1
0	1052899	6	1
0	1052899	7	1
0	1052899	8	1
0	1052899	9	1
0	1052899	10	1
0	1052899	11	1
0	1052899	12	1
0	1052899	13	1
0	1052899	14	1
0	1052899	15	1
0	1052899	16	0.8
0	1052899	17	1
0	1052899	18	1
0	1052899	19	0.83333333333333
0	1052899	20	1
0	1052899	21	1
0	1052899	22	1
0	1052899	23	0.75
0	1052899	24	1
0	1052899	25	1
0	1052899	26	1
0	1052899	27	1
0	1052899	28	1
0	1052899	29	1
0	1052899	30	0.5
0	1052899	31	1
0	1052899	32	1
0	1052899	33	1
0	1052899	34	1
0	1052899	35	1
0	1052899	36	0.5
0	1052899	37	1
0	1052899	38	0.75
0	1052899	39	0
0	1052899	40	1
0	1052899	41	1
0	1052899	42	1
0	1052899	43	1
0	1052899	44	-nan
0	1052899	45	1
0	1052899	46	0
0	1052899	47	1
0	1052899	48	1
0	1052899	49	0.6
0	1052899	50	1
0	1052899	51	0
0	1052899	52	1
0	1052899	53	1
0	1052899	54	0
0	1052899	55	0
0	1052899	56	1
0	1052899	57	1
0	1052899	58	1
0	1052899	59	0.33333333333333
0	1052899	60	0.66666666666667
0	1052899	61	1
0	1052899	62	1
0	1052899	63	1
0	1052899	64	1
0	1052899	65	1
0	1052899	66	1
0	1052899	67	0.75
0	1052899	68	1
0	1052899	69	-nan
0	1052899	70	0
0	1052899	71	0
0	1052899	72	0
0	1052899	73	0.66666666666667
0	1052899	74	0.25
0	1052899	75	0
0	1052899	76	0
0	1052899	77	0.5
0	1052899	78	1
0	1052899	79	1
0	1052899	80	-nan
0	1052899	81	-nan
0	1052899	82	0
0	1052899	83	0
0	1052899	84	0
0	1052899	85	0
0	1052899	86	0
0	1052899	87	-nan
0	1052899	88	0.8
0	1052899	89	0
0	1052899	90	1
0	1052899	91	-nan
0	1052899	92	1
0	1052899	93	1
0	1052899	94	-nan
0	1052899	95	0
0	1052899	96	0
0	1052899	97	1
0	1052899	98	1
0	1052899	99	0
0	1052899	100	0
0	1052899	101	0.5
0	1052899	102	0.25
0	1052899	103	0
0	1052899	104	0
0	1052899	105	0
0	1052899	106	0
0	1052899	107	1
0	1052899	108	0
0	1052899	109	0
0	1052899	110	0
0	1052899	111	0
0	1052899	112	-nan
0	1052899	113	0
0	1052899	114	-nan
0	1052899	115	-nan
0	1052899	116	1
0	1052899	117	0
0	1052899	118	0
0	1052899	119	0
0	1052899	120	0
0	1052899	121	0
0	1052899	122	0
0	1052899	123	-nan
0	1052899	124	1
0	1052899	125	0
0	1052899	126	0
0	1052899	127	0
0	1052899	128	0
0	1052899	129	0
0	1052899	130	1
0	1052899	131	0
0	1052899	132	-nan
0	1052899	133	0
0	1052899	134	0
0	1052899	135	0
0	1052899	136	-nan
0	1052899	137	0
0	1052899	138	0
0	1052899	139	-nan
0	1052899	140	0
0	1052899	141	0
0	1052899	142	1
0	1052899	143	0
0	1052899	144	-nan
0	1052899	145	0
0	1052899	146	0
0	1052899	147	-nan
0	1052899	148	0
0	1052899	149	0
0	1052899	150	0
0	1052899	151	-nan
0	1052899	152	0
0	1052899	153	0
0	1052899	154	0
0	1052899	155	0
0	1052899	156	0
0	1052899	157	0
0	1052899	158	0
0	1052899	159	0
0	1052899	160	0
0	1052899	161	-nan
0	1052899	162	-nan
0	1052899	163	-nan
0	1052899	164	1
0	1052899	165	-nan
0	1052899	166	0
0	1052899	167	1
0	1052899	168	-nan
0	1052899	169	-nan
0	1052899	170	0
0	1052899	171	0
0	1052899	172	0
0	1052899	173	-nan
0	1052899	174	0
0	1052899	175	-nan
0	1052899	176	0
0	1052899	177	0
0	1052899	178	0
0	1052899	179	0
0	1052899	180	0.25
0	1052899	181	0
0	1052899	182	0
0	1052899	183	-nan
0	1052899	184	0
0	1052899	185	0
0	1052899	186	0
0	1052899	187	0
0	1052899	188	0
0	1052899	189	0
0	1052899	190	0
0	1052899	191	-nan
0	1052899	192	-nan
0	1052899	193	-nan
0	1052899	194	0
0	1052899	195	0
0	1052899	196	0
0	1052899	197	-nan
0	1052899	198	0
0	1052899	199	0
0	1052899	200	0
0	1052899	201	1
0	1052899	202	0
0	1052899	203	0
0	1052899	204	0
0	1052899	205	-nan
0	1052899	206	0
0	1052899	207	0
0	1052899	208	0.33333333333333
0	1052899	209	0
0	1052899	210	0.75
0	1052899	211	-nan
0	1052899	212	-nan
0	1052899	213	-nan
0	1052899	214	0
0	1052899	215	-nan
0	1052899	216	-nan
0	1052899	217	-nan
0	1052899	218	0
0	1052899	219	-nan
0	1052899	220	0
0	1052899	221	0
0	1052899	222	0
0	1052899	223	0
0	1052899	224	1
0	1052899	225	0
0	1052899	226	0
0	1052899	227	0
0	1052899	228	0
0	1052899	229	0
0	1052899	230	-nan
0	1052899	231	0
0	1052899	232	0
0	1052899	233	-nan
0	1052899	234	-nan
0	1052899	235	-nan
0	1052899	236	0
0	1052899	237	-nan
0	1052899	238	-nan
0	1052899	239	-nan
0	1052899	240	-nan
0	1052899	241	-nan
0	1052899	242	-nan
0	1052899	243	0
0	1052899	244	0
0	1052899	245	-nan
0	1052899	246	0
0	1052899	247	0
0	1052899	248	-nan
0	1052899	249	-nan
0	1052899	250	-nan
0	1052899	251	-nan
0	1052899	252	-nan
0	1052899	253	0
0	1052899	254	0
0	1052899	255	-nan
0	1052899	256	0
0	1052899	257	0
0	1052899	258	-nan
0	1052899	259	-nan
0	1052899	260	0
0	1052899	261	-nan
0	1052899	262	0
0	1052899	263	0
0	1052899	264	0
0	1052899	265	-nan
0	1052899	266	-nan
0	1052899	267	-nan
0	1052899	268	0
0	1052899	269	0
0	1052899	270	-nan
0	1052899	271	-nan
0	1052899	272	0
0	1052899	273	0
0	1052899	274	-nan
0	1052899	275	0
0	1052899	276	-nan
0	1052899	277	0
0	1052899	278	0
0	1052899	279	0
0	1052899	280	0
0	1052899	281	-nan
0	1052899	282	0
0	1052899	283	0
0	1052899	284	0
0	1052899	285	-nan
0	1052899	286	0
0	1052899	287	0
0	1052899	288	0
0	1052899	289	-nan
0	1052899	290	-nan
0	1052899	291	0.66666666666667
0	1052899	292	-nan
0	1052899	293	-nan
0	1052899	294	0
0	1052899	295	0
0	1052899	296	0
0	1052899	297	-nan
0	1052899	298	0
0	1052899	299	0
0	1052899	300	-nan
0	1052899	301	-nan
0	1052899	302	-nan
0	1052899	303	0
0	1052899	304	0
0	1052899	305	-nan
0	1052899	306	-nan
0	1052899	307	-nan
0	1052899	308	-nan
0	1052899	309	-nan
0	1052899	310	1
0	1052899	311	0
0	1052899	312	0
0	1052899	313	0
0	1052899	314	-nan
0	1052899	315	-nan
0	1052899	316	-nan
0	1052899	317	0
0	1052899	318	0
0	1052899	319	0
0	1052899	320	0
0	1052899	321	0
0	1052899	322	0
0	1052899	323	-nan
0	1052899	324	-nan
0	1052899	325	0
0	1052899	326	0
0	1052899	327	-nan
0	1052899	328	0
0	1052899	329	0
0	1052899	330	0
0	1052899	331	-nan
0	1052899	332	0
0	1052899	333	0
0	1052899	334	-nan
0	1052899	335	-nan
0	1052899	336	-nan
0	1052899	337	0
0	1052899	338	-nan
0	1052899	339	-nan
0	1052899	340	0
0	1052899	341	-nan
0	1052899	342	-nan
0	1052899	343	0
0	1052899	344	-nan
0	1052899	345	-nan
0	1052899	346	-nan
0	1052899	347	0
0	1052899	348	-nan
0	1052899	349	0
0	1052899	350	-nan
0	1052899	351	-nan
0	1052899	352	-nan
0	1052899	353	0
0	1052899	354	-nan
0	1052899	355	0
0	1052899	356	-nan
0	1052899	357	0
0	1052899	358	-nan
0	1052899	359	0
0	1052899	360	0
0	1052899	361	-nan
0	1052899	362	0
0	1052899	363	-nan
0	1052899	364	0
0	1052899	365	0
0	1052899	366	0
0	1052899	367	-nan
0	1052899	368	0
0	1052899	369	-nan
0	1052899	370	-nan
0	1052899	371	-nan
0	1052899	372	-nan
0	1052899	373	-nan
0	1052899	374	0
0	1052899	375	-nan
0	1052899	376	0
0	1052899	377	0
0	1052899	378	-nan
0	1052899	379	-nan
0	1052899	380	-nan
0	1052899	381	-nan
0	1052899	382	0
0	1052899	383	0
0	1052899	384	-nan
0	1052899	385	-nan
0	1052899	386	0
0	1052899	387	0
0	1052899	388	0
0	1052899	389	-nan
0	1052899	390	-nan
0	1052899	391	-nan
0	1052899	392	-nan
0	1052899	393	0
0	1052899	394	-nan
0	1052899	395	-nan
0	1052899	396	0
0	1052899	397	-nan
0	1052899	398	0
0	1052899	399	0
0	1052899	400	0
0	1052899	401	-nan
0	1052899	402	0
0	1052899	403	-nan
0	1052899	404	-nan
0	1052899	405	-nan
0	1052899	406	-nan
0	1052899	407	0
0	1052899	408	-nan
0	1052899	409	-nan
0	1052899	410	0
0	1052899	411	-nan
0	1052899	412	0
0	1052899	413	0
0	1052899	414	-nan
0	1052899	415	0
0	1052899	416	-nan
0	1052899	417	-nan
0	1052899	418	-nan
0	1052899	419	0
0	1052899	420	0
0	1052899	421	0
0	1052899	422	-nan
0	1052899	423	0
0	1052899	424	0
0	1052899	425	-nan
0	1052899	426	-nan
0	1052899	427	-nan
0	1052899	428	-nan
0	1052899	429	-nan
0	1052899	430	0
0	1052899	431	-nan
0	1052899	432	-nan
0	1052899	433	-nan
0	1052899	434	-nan
0	1052899	435	-nan
0	1052899	436	0
0	1052899	437	-nan
0	1052899	438	-nan
0	1052899	439	-nan
0	1052899	440	-nan
0	1052899	441	-nan
0	1052899	442	-nan
0	1052899	443	-nan
0	1052899	444	0
0	1052899	445	-nan
0	1052899	446	-nan
0	1052899	447	-nan
0	1052899	448	0
0	1052899	449	-nan
0	1052899	450	0
0	1052899	451	-nan
0	1052899	452	-nan
0	1052899	453	0
0	1052899	454	0
0	1052899	455	0
0	1052899	456	0
0	1052899	457	0
0	1052899	458	0
0	1052899	459	-nan
0	1052899	460	-nan
0	1052899	461	-nan
0	1052899	462	-nan
0	1052899	463	-nan
0	1052899	464	-nan
0	1052899	465	-nan
0	1052899	466	-nan
0	1052899	467	0
0	1052899	468	-nan
0	1052899	469	0
0	1052899	470	-nan
0	1052899	471	-nan
0	1052899	472	-nan
0	1052899	473	-nan
0	1052899	474	-nan
0	1052899	475	0
0	1052899	476	-nan
0	1052899	477	-nan
0	1052899	478	-nan
0	1052899	479	-nan
0	1052899	480	-nan
0	1052899	481	-nan
0	1052899	482	-nan
0	1052899	483	-nan
0	1052899	484	-nan
0	1052899	485	-nan
0	1052899	486	-nan
0	1052899	487	-nan
0	1052899	488	-nan
0	1052899	489	0
0	1052899	490	0
0	1052899	491	0
0	1052899	492	0
0	1052899	493	0
0	1052899	494	-nan
0	1052899	495	-nan
0	1052899	496	-nan
0	1052899	497	0
0	1052899	498	-nan
0	1052899	499	0
0	1052899	500	0
0	1052899	501	-nan
0	1052899	502	-nan
0	1052899	503	-nan
0	1052899	504	-nan
0	1052899	505	0
0	1052899	506	0
0	1052899	507	-nan
0	1052899	508	0
0	1052899	509	0
0	1052899	510	-nan
0	1052899	511	-nan
0	1052899	512	-nan
0	1052899	513	-nan
0	1052899	514	-nan
0	1052899	515	0
0	1052899	516	-nan
0	1052899	517	0
0	1052899	518	0
0	1052899	519	-nan
0	1052899	520	0
0	1052899	521	0
0	1052899	522	-nan
0	1052899	523	0
0	1052899	524	0
0	1052899	525	-nan
0	1052899	526	-nan
0	1052899	527	0
0	1052899	528	-nan
0	1052899	529	-nan
0	1052899	530	-nan
0	1052899	531	-nan
0	1052899	532	-nan
0	1052899	533	0
0	1052899	534	-nan
0	1052899	535	0
0	1052899	536	-nan
0	1052899	537	0
0	1052899	538	0
0	1052899	539	-nan
0	1052899	540	-nan
0	1052899	541	-nan
0	1052899	542	0
0	1052899	543	0
0	1052899	544	-nan
0	1052899	545	-nan
0	1052899	546	0
0	1052899	547	-nan
0	1052899	548	-nan
0	1052899	549	-nan
0	1052899	550	-nan
0	1052899	551	0
0	1052899	552	-nan
0	1052899	553	0
0	1052899	554	-nan
0	1052899	555	0
0	1052899	556	-nan
0	1052899	557	-nan
0	1052899	558	0
0	1052899	559	0
0	1052899	560	-nan
0	1052899	561	-nan
0	1052899	562	0
0	1052899	563	0
0	1052899	564	-nan
0	1052899	565	-nan
0	1052899	566	-nan
0	1052899	567	-nan
0	1052899	568	-nan
0	1052899	569	-nan
0	1052899	570	0
0	1052899	571	-nan
0	1052899	572	-nan
0	1052899	573	-nan
0	1052899	574	-nan
0	1052899	575	0
0	1052899	576	-nan
0	1052899	577	-nan
0	1052899	578	0
0	1052899	579	0
0	1052899	580	-nan
0	1052899	581	-nan
0	1052899	582	-nan
0	1052899	583	0
0	1052899	584	-nan
0	1052899	585	-nan
0	1052899	586	-nan
0	1052899	587	0
0	1052899	588	-nan
0	1052899	589	-nan
0	1052899	590	-nan
0	1052899	591	-nan
0	1052899	592	-nan
0	1052899	593	0
0	1052899	594	-nan
0	1052899	595	-nan
0	1052899	596	-nan
0	1052899	597	0
0	1052899	598	0
0	1052899	599	-nan
0	1052899	600	-nan
0	1052899	601	-nan
0	1052899	602	-nan
0	1052899	603	-nan
0	1052899	604	-nan
vector 1  abilene_network.node[1].content_store  hit_node[1]  ETV
1	1052899	1	1
1	1052899	2	1
1	1052899	3	1
1	1052899	4	1
1	1052899	5	1
1	1052899	6	1
1	1052899	7	1
1	1052899	8	1
1	1052899	9	1
1	1052899	10	1
1	1052899	11	1
1	1052899	12	1
1	1052899	13	1
1	1052899	14	0.875
1	1052899	15	0.6
1	1052899	16	1
1	1052899	17	1
1	1052899	18	1
1	1052899	19	0.875
1	1052899	20	1
1	1052899	21	0.8
1	1052899	22	0.875
1	1052899	23	1
1	1052899	24	0.8
1	1052899	25	1
1	1052899	26	1
1	1052899	27	0.42857142857143
1	1052899	28	0.83333333333333
1	1052899	29	1
1	1052899	30	0.5
1	1052899	31	0.83333333333333
1	1052899	32	0.83333333333333
1	1052899	33	0.66666666666667
1	1052899	34	1
1	1052899	35	1
1	1052899	36	1
1	1052899	37	1
1	1052899	38	1
1	1052899	39	0.875
1	1052899	40	0.5
1	1052899	41	0.5
1	1052899	42	1
1	1052899	43	0.5
1	1052899	44	0
1	1052899	45	0.5
1	1052899	46	0
1	1052899	47	1
1	1052899	48	0.85714285714286
1	1052899	49	0.28571428571429
1	1052899	50	0.83333333333333
1	1052899	51	0.75
1	1052899	52	0.75
1	1052899	53	0
1	1052899	54	0.33333333333333
1	1052899	55	0.4
1	1052899	56	1
1	1052899	57	1
1	1052899	58	1
1	1052899	59	0.83333333333333
1	1052899	60	0.85714285714286
1	1052899	61	0.5
1	1052899	62	0.5
1	1052899	63	0
1	1052899	64	1
1	1052899	65	1
1	1052899	66	0.66666666666667
1	1052899	67	0.8
1	1052899	68	0.25
1	1052899	69	0
1	1052899	70	0
1	1052899	71	0
1	1052899	72	0
1	1052899	73	1
1	1052899	74	0.6
1	1052899	75	0
1	1052899	76	0
1	1052899	77	0.8
1	1052899	78	0.2
1	1052899	79	0
1	1052899	80	0.6
1	1052899	81	0
1	1052899	82	0
1	1052899	83	0
1	1052899	84	0.66666666666667
1	1052899	85	0
1	1052899	86	0.5
1	1052899	87	0.25
1	1052899	88	1
1	1052899	89	0.28571428571429
1	1052899	90	0
1	1052899	91	0.25
1	1052899	92	0.2
1	1052899	93	1
1	1052899	94	0
1	1052899	95	0
1	1052899	96	0.8
1	1052899	97	0
1	1052899	98	1
1	1052899	99	0.2
1	1052899	100	0.33333333333333
1	1052899	101	0.75
1	1052899	102	0.6
1	1052899	103	0.25
1	1052899	104	0
1	1052899	105	0.2
1	1052899	106	0.2
1	1052899	107	0
1	1052899	108	1
1	1052899	109	0
1	1052899	110	0
1	1052899	111	0.5
1	1052899	112	0
1	1052899	113	0
1	1052899	114	0.5
1	1052899	115	0
1	1052899	116	0
1	1052899	117	0
1	1052899	118	0
1	1052899	119	0.4
1	1052899	120	0.25
1	1052899	121	0
1	1052899	122	0
1	1052899	123	-nan
1	1052899	124	0
1	1052899	125	0
1	1052899	126	0.25
1	1052899	127	0
1	1052899	128	0.42857142857143
1	1052899	129	0
1	1052899	130	0.33333333333333
1	1052899	131	0
1	1052899	132	1
1	1052899	133	0
1	1052899	134	0
1	1052899	135	0.25
1	1052899	136	0
1	1052899	137	0
1	1052899	138	0.33333333333333
1	1052899	139	0.66666666666667
1	1052899	140	0
1	1052899	141	0
1	1052899	142	0.5
1	1052899	143	0
1	1052899	144	0
1	1052899	145	0
1	1052899	146	0
1	1052899	147	0
1	1052899	148	0
1	1052899	149	0
1	1052899	150	0
1	1052899	151	0
1	1052899	152	0.33333333333333
1	1052899	153	0
1	1052899	154	0
1	1052899	155	0
1	1052899	156	0.25
1	1052899	157	0
1	1052899	158	0
1	1052899	159	0.8
1	1052899	160	0
1	1052899	161	-nan
1	1052899	162	0
1	1052899	163	0
1	1052899	164	0
1	1052899	165	0
1	1052899	166	0.71428571428571
1	1052899	167	1
1	1052899	168	1
1	1052899	169	0
1	1052899	170	0.25
1	1052899	171	0
1	1052899	172	0
1	1052899	173	0
1	1052899	174	0
1	1052899	175	-nan
1	1052899	176	0
1	1052899	177	0
1	1052899	178	0
1	1052899	179	0
1	1052899	180	0.5
1	1052899	181	0
1	1052899	182	0
1	1052899	183	0
1	1052899	184	0
1	1052899	185	0
1	1052899	186	0
1	1052899	187	0
1	1052899	188	0
1	1052899	189	0
1	1052899	190	0
1	1052899	191	0
1	1052899	192	0
1	1052899	193	0
1	1052899	194	0
1	1052899	195	0
1	1052899	196	0
1	1052899	197	0
1	1052899	198	0
1	1052899	199	0
1	1052899	200	0
1	1052899	201	0
1	1052899	202	0
1	1052899	203	0
1	1052899	204	0
1	1052899	205	0
1	1052899	206	0
1	1052899	207	0.33333333333333
1	1052899	208	0.66666666666667
1	1052899	209	0
1	1052899	210	1
1	1052899	211	0
1	1052899	212	0
1	1052899	213	0
1	1052899	214	0
1	1052899	215	0
1	1052899	216	0
1	1052899	217	0
1	1052899	218	0
1	1052899	219	-nan
1	1052899	220	0
1	1052899	221	0
1	1052899	222	0
1	1052899	223	0
1	1052899	224	-nan
1	1052899	225	0
1	1052899	226	0
1	1052899	227	0
1	1052899	228	0
1	1052899	229	0
1	1052899	230	0
1	1052899	231	0
1	1052899	232	0.625
1	1052899	233	0
1	1052899	234	0
1	1052899	235	-nan
1	1052899	236	0
1	1052899	237	0
1	1052899	238	0
1	1052899	239	-nan
1	1052899	240	0
1	1052899	241	0
1	1052899	242	0
1	1052899	243	0
1	1052899	244	0
1	1052899	245	-nan
1	1052899	246	0
1	1052899	247	0
1	1052899	248	-nan
1	1052899	249	0
1	1052899	250	0
1	1052899	251	-nan
1	1052899	252	0
1	1052899	253	0
1	1052899	254	0
1	1052899	255	0
1	1052899	256	0.4
1	1052899	257	0
1	1052899	258	0
1	1052899	259	0
1	1052899	260	0
1	1052899	261	0
1	1052899	262	0
1	1052899	263	0
1	1052899	264	0
1	1052899	265	0
1	1052899	266	0
1	1052899	267	0
1	1052899	268	0
1	1052899	269	0
1	1052899	270	0
1	1052899	271	0
1	1052899	272	0
1	1052899	273	0
1	1052899	274	0
1	1052899	275	0
1	1052899	276	-nan
1	1052899	277	0
1	1052899	278	0
1	1052899	279	0.33333333333333
1	1052899	280	0
1	1052899	281	0
1	1052899	282	0
1	1052899	283	0
1	1052899	284	0
1	1052899	285	0
1	1052899	286	0
1	1052899	287	0
1	1052899	288	0
1	1052899	289	-nan
1	1052899	290	0
1	1052899	291	0.25
1	1052899	292	0
1	1052899	293	-nan
1	1052899	294	0
1	1052899	295	0
1	1052899	296	0
1	1052899	297	0
1	1052899	298	0
1	1052899	299	0
1	1052899	300	-nan
1	1052899	301	0
1	1052899	302	0
1	1052899	303	0
1	1052899	304	0
1	1052899	305	0
1	1052899	306	-nan
1	1052899	307	0
1	1052899	308	0
1	1052899	309	0
1	1052899	310	0
1	1052899	311	0
1	1052899	312	0
1	1052899	313	0
1	1052899	314	-nan
1	1052899	315	-nan
1	1052899	316	0
1	1052899	317	0
1	1052899	318	0
1	1052899	319	0
1	1052899	320	0.5
1	1052899	321	0
1	1052899	322	0
1	1052899	323	0
1	1052899	324	0
1	1052899	325	0
1	1052899	326	0
1	1052899	327	-nan
1	1052899	328	0
1	1052899	329	0
1	1052899	330	0
1	1052899	331	0
1	1052899	332	0
1	1052899	333	0
1	1052899	334	0
1	1052899	335	0
1	1052899	336	0
1	1052899	337	0
1	1052899	338	0
1	1052899	339	-nan
1	1052899	340	0.33333333333333
1	1052899	341	0
1	1052899	342	0
1	1052899	343	0
1	1052899	344	0
1	1052899	345	0
1	1052899	346	0
1	1052899	347	0
1	1052899	348	0
1	1052899	349	0
1	1052899	350	-nan
1	1052899	351	0
1	1052899	352	0
1	1052899	353	0
1	1052899	354	0
1	1052899	355	0
1	1052899	356	0
1	1052899	357	0
1	1052899	358	0
1	1052899	359	0
1	1052899	360	0
1	1052899	361	-nan
1	1052899	362	0
1	1052899	363	0
1	1052899	364	0
1	1052899	365	0
1	1052899	366	0
1	1052899	367	-nan
1	1052899	368	0
1	1052899	369	0
1	1052899	370	0
1	1052899	371	-nan
1	1052899	372	0
1	1052899	373	0
1	1052899	374	0
1	1052899	375	0
1	1052899	376	0
1	1052899	377	0
1	1052899	378	0
1	1052899	379	0
1	1052899	380	0
1	1052899	381	0
1	1052899	382	0
1	1052899	383	0
1	1052899	384	0
1	1052899	385	-nan
1	1052899	386	0
1	1052899	387	0
1	1052899	388	0
1	1052899	389	0
1	1052899	390	0
1	1052899	391	0
1	1052899	392	-nan
1	1052899	393	0
1	1052899	394	-nan
1	1052899	395	-nan
1	1052899	396	0
1	1052899	397	-nan
1	1052899	398	0
1	1052899	399	0
1	1052899	400	0
1	1052899	401	0
1	1052899	402	0
1	1052899	403	-nan
1	1052899	404	0
1	1052899	405	0
1	1052899	406	0
1	1052899	407	0
1	1052899	408	0
1	1052899	409	0
1	1052899	410	0
1	1052899	411	-nan
1	1052899	412	0
1	1052899	413	0
1	1052899	414	0
1	1052899	415	0
1	1052899	416	-nan
1	1052899	417	0
1	1052899	418	0
1	1052899	419	0
1	1052899	420	0
1	1052899	421	0
1	1052899	422	-nan
1	1052899	423	0
1	1052899	424	0
1	1052899	425	0
1	1052899	426	0
1	1052899	427	0
1	1052899	428	-nan
1	1052899	429	0
1	1052899	430	0
1	1052899	431	-nan
1	1052899	432	-nan
1	1052899	433	0
1	1052899	434	0
1	1052899	435	0
1	1052899	436	0
1	1052899	437	0
1	1052899	438	-nan
1	1052899	439	0
1	1052899	440	-nan
1	1052899	441	-nan
1	1052899	442	-nan
1	1052899	443	-nan
1	1052899	444	0
1	1052899	445	-nan
1	1052899	446	-nan
1	1052899	447	-nan
1	1052899	448	0
1	1052899	449	0
1	1052899	450	0
1	1052899	451	0
1	1052899	452	-nan
1	1052899	453	0
1	1052899	454	0
1	1052899	455	1
1	1052899	456	0.5
1	1052899	457	0
1	1052899	458	0
1	1052899	459	0
1	1052899	460	0
1	1052899	461	-nan
1	1052899	462	0
1	1052899	463	0
1	1052899	464	0
1	1052899	465	0
1	1052899	466	-nan
1	1052899	467	0
1	1052899	468	0
1	1052899	469	0
1	1052899	470	-nan
1	1052899	471	0
1	1052899	472	-nan
1	1052899	473	0
1	1052899	474	0
1	1052899	475	0
1	1052899	476	0
1	1052899	477	-nan
1	1052899	478	0
1	1052899	479	0
1	1052899	480	0
1	1052899	481	0
1	1052899	482	-nan
1	1052899	483	-nan
1	1052899	484	0.6
1	1052899	485	-nan
1	1052899	486	0
1	1052899	487	0
1	1052899	488	-nan
1	1052899	489	0
1	1052899	490	0
1	1052899	491	0
1	1052899	492	0
1	1052899	493	0
1	1052899	494	-nan
1	1052899	495	0
1	1052899	496	-nan
1	1052899	497	0
1	1052899	498	-nan
1	1052899	499	0
1	1052899	500	0
1	1052899	501	0
1	1052899	502	0
1	1052899	503	0
1	1052899	504	0
1	1052899	505	0
1	1052899	506	0
1	1052899	507	-nan
1	1052899	508	0
1	1052899	509	0
1	1052899	510	0
1	1052899	511	-nan
1	1052899	512	0
1	1052899	513	0
1	1052899	514	0
1	1052899	515	0
1	1052899	516	-nan
1	1052899	517	0
1	1052899	518	0
1	1052899	519	-nan
1	1052899	520	0
1	1052899	521	0
1	1052899	522	0
1	1052899	523	0
1	1052899	524	0
1	1052899	525	0
1	1052899	526	0
1	1052899	527	0
1	1052899	528	0
1	1052899	529	0
1	1052899	530	0
1	1052899	531	-nan
1	1052899	532	-nan
1	1052899	533	0
1	1052899	534	-nan
1	1052899	535	0
1	1052899	536	0
1	1052899	537	0
1	1052899	538	0
1	1052899	539	-nan
1	1052899	540	-nan
1	1052899	541	-nan
1	1052899	542	0
1	1052899	543	0
1	1052899	544	-nan
1	1052899	545	-nan
1	1052899	546	0
1	1052899	547	0
1	1052899	548	-nan
1	1052899	549	0
1	1052899	550	-nan
1	1052899	551	0
1	1052899	552	0
1	1052899	553	0
1	1052899	554	0
1	1052899	555	0
1	1052899	556	0
1	1052899	557	-nan
1	1052899	558	0
1	1052899	559	0
1	1052899	560	0
1	1052899	561	-nan
1	1052899	562	0
1	1052899	563	0
1	1052899	564	-nan
1	1052899	565	0
1	1052899	566	-nan
1	1052899	567	-nan
1	1052899	568	-nan
1	1052899	569	-nan
1	1052899	570	0
1	1052899	571	0
1	1052899	572	-nan
1	1052899	573	0
1	1052899	574	-nan
1	1052899	575	0
1	1052899	576	0
1	1052899	577	-nan
1	1052899	578	0
1	1052899	579	0
1	1052899	580	0
1	1052899	581	0
1	1052899	582	-nan
1	1052899	583	0
1	1052899	584	-nan
1	1052899	585	0
1	1052899	586	0
1	1052899	587	0
1	1052899	588	0
1	1052899	589	-nan
1	1052899	590	-nan
1	1052899	591	0
1	1052899	592	0
1	1052899	593	0
1	1052899	594	0
1	1052899	595	-nan
1	1052899	596	0
1	1052899	597	0
1	1052899	598	0
1	1052899	599	0
1	1052899	600	0
1	1052899	601	-nan
1	1052899	602	0
1	1052899	603	-nan
1	1052899	604	0
vector 2  abilene_network.node[2].content_store  hit_node[2]  ETV
2	1052899	1	1
2	1052899	2	1
2	1052899	3	1
2	1052899	4	1
2	1052899	5	1
2	1052899	6	1
2	1052899	7	1
2	1052899	8	0.9
2	1052899	9	1
2	1052899	10	1
2	1052899	11	1
2	1052899	12	1
2	1052899	13	1
2	1052899	14	1
2	1052899	15	1
2	1052899	16	0.33333333333333
2	1052899	17	1
2	1052899	18	1
2	1052899	19	1
2	1052899	20	1
2	1052899	21	1
2	1052899	22	1
2	1052899	23	1
2	1052899	24	0.5
2	1052899	25	1
2	1052899	26	0.8
2	1052899	27	0.5
2	1052899	28	0.85714285714286
2	1052899	29	0.66666666666667
2	1052899	30	1
2	1052899	31	1
2	1052899	32	1
2	1052899	33	1
2	1052899	34	0
2	1052899	35	0.85714285714286
2	1052899	36	0.66666666666667
2	1052899	37	0
2	1052899	38	1
2	1052899	39	0.8
2	1052899	40	0.75
2	1052899	41	0.5
2	1052899	42	0.5
2	1052899	43	1
2	1052899	44	0.85714285714286
2	1052899	45	0.14285714285714
2	1052899	46	0
2	1052899	47	0
2	1052899	48	0.75
2	1052899	49	0.2
2	1052899	50	0.66666666666667
2	1052899	51	1
2	1052899	52	1
2	1052899	53	0
2	1052899	54	0.28571428571429
2	1052899	55	0.42857142857143
2	1052899	56	0
2	1052899	57	0.66666666666667
2	1052899	58	0
2	1052899	59	1
2	1052899	60	1
2	1052899	61	0.25
2	1052899	62	0.5
2	1052899	63	0
2	1052899	64	0
2	1052899	65	0
2	1052899	66	1
2	1052899	67	0
2	1052899	68	0.5
2	1052899	69	0
2	1052899	70	0.2
2	1052899	71	0.11111111111111
2	1052899	72	0
2	1052899	73	0.5
2	1052899	74	0.8
2	1052899	75	0
2	1052899	76	0
2	1052899	77	0.66666666666667
2	1052899	78	0.14285714285714
2	1052899	79	0.28571428571429
2	1052899	80	1
2	1052899	81	0
2	1052899	82	0
2	1052899	83	0
2	1052899	84	0.66666666666667
2	1052899	85	0
2	1052899	86	0.2
2	1052899	87	0.4
2	1052899	88	-nan
2	1052899	89	0.3
2	1052899	90	0
2	1052899	91	0.5
2	1052899	92	0.2
2	1052899	93	0
2	1052899	94	0
2	1052899	95	0
2	1052899	96	0
2	1052899	97	0
2	1052899	98	0
2	1052899	99	0.33333333333333
2	1052899	100	0.33333333333333
2	1052899	101	1
2	1052899	102	0.5
2	1052899	103	0
2	1052899	104	0.57142857142857
2	1052899	105	0.42857142857143
2	1052899	106	0.2
2	1052899	107	0
2	1052899	108	0
2	1052899	109	0
2	1052899	110	0
2	1052899	111	0.5
2	1052899	112	0
2	1052899	113	0
2	1052899	114	0
2	1052899	115	0.22222222222222
2	1052899	116	0
2	1052899	117	0
2	1052899	118	0
2	1052899	119	0.25
2	1052899	120	0.33333333333333
2	1052899	121	0
2	1052899	122	0
2	1052899	123	-nan
2	1052899	124	0
2	1052899	125	0
2	1052899	126	0.2
2	1052899	127	0.14285714285714
2	1052899	128	0.5
2	1052899	129	0
2	1052899	130	0.33333333333333
2	1052899	131	0
2	1052899	132	0
2	1052899	133	0
2	1052899	134	0
2	1052899	135	0.8
2	1052899	136	0
2	1052899	137	0
2	1052899	138	0.66666666666667
2	1052899	139	1
2	1052899	140	0
2	1052899	141	0
2	1052899	142	0.5
2	1052899	143	0
2	1052899	144	0
2	1052899	145	0
2	1052899	146	0
2	1052899	147	0
2	1052899	148	0
2	1052899	149	0
2	1052899	150	0
2	1052899	151	0.4
2	1052899	152	0.4
2	1052899	153	0
2	1052899	154	0
2	1052899	155	0
2	1052899	156	0.33333333333333
2	1052899	157	0
2	1052899	158	0
2	1052899	159	1
2	1052899	160	0
2	1052899	161	-nan
2	1052899	162	0
2	1052899	163	0
2	1052899	164	0.33333333333333
2	1052899	165	0
2	1052899	166	0.5
2	1052899	167	-nan
2	1052899	168	0
2	1052899	169	0
2	1052899	170	0.16666666666667
2	1052899	171	0
2	1052899	172	0
2	1052899	173	0
2	1052899	174	0
2	1052899	175	-nan
2	1052899	176	0
2	1052899	177	0
2	1052899	178	0
2	1052899	179	0
2	1052899	180	0.25
2	1052899	181	0
2	1052899	182	0
2	1052899	183	0
2	1052899	184	0
2	1052899	185	0
2	1052899	186	0
2	1052899	187	0
2	1052899	188	0
2	1052899	189	0
2	1052899	190	0
2	1052899	191	0
2	1052899	192	0
2	1052899	193	0
2	1052899	194	0
2	1052899	195	0
2	1052899	196	0
2	1052899	197	0
2	1052899	198	0
2	1052899	199	0
2	1052899	200	0
2	1052899	201	0
2	1052899	202	0
2	1052899	203	0.14285714285714
2	1052899	204	0
2	1052899	205	0
2	1052899	206	0
2	1052899	207	0.25
2	1052899	208	0.8
2	1052899	209	0
2	1052899	210	-nan
2	1052899	211	0
2	1052899	212	0
2	1052899	213	0
2	1052899	214	0
2	1052899	215	0.8
2	1052899	216	0
2	1052899	217	0
2	1052899	218	0
2	1052899	219	0
2	1052899	220	0
2	1052899	221	0
2	1052899	222	0
2	1052899	223	0
2	1052899	224	-nan
2	1052899	225	0
2	1052899	226	0
2	1052899	227	0
2	1052899	228	0
2	1052899	229	0
2	1052899	230	0
2	1052899	231	0
2	1052899	232	0.33333333333333
2	1052899	233	0
2	1052899	234	0
2	1052899	235	0
2	1052899	236	0
2	1052899	237	0
2	1052899	238	0
2	1052899	239	-nan
2	1052899	240	0.25
2	1052899	241	0
2	1052899	242	0
2	1052899	243	0
2	1052899	244	0
2	1052899	245	-nan
2	1052899	246	0
2	1052899	247	0
2	1052899	248	-nan
2	1052899	249	0
2	1052899	250	0
2	1052899	251	-nan
2	1052899	252	0
2	1052899	253	0
2	1052899	254	0
2	1052899	255	0
2	1052899	256	0.33333333333333
2	1052899	257	0
2	1052899	258	0.2
2	1052899	259	0
2	1052899	260	0.33333333333333
2	1052899	261	0
2	1052899	262	0
2	1052899	263	0
2	1052899	264	0
2	1052899	265	0
2	1052899	266	0
2	1052899	267	0
2	1052899	268	0
2	1052899	269	0
2	1052899	270	0
2	1052899	271	0
2	1052899	272	0
2	1052899	273	0
2	1052899	274	0
2	1052899	275	0
2	1052899	276	-nan
2	1052899	277	0
2	1052899	278	0
2	1052899	279	0.5
2	1052899	280	0
2	1052899	281	0
2	1052899	282	0
2	1052899	283	0
2	1052899	284	0
2	1052899	285	0
2	1052899	286	0
2	1052899	287	0
2	1052899	288	0
2	1052899	289	-nan
2	1052899	290	0
2	1052899	291	0.25
2	1052899	292	0
2	1052899	293	0
2	1052899	294	0
2	1052899	295	0
2	1052899	296	0
2	1052899	297	0
2	1052899	298	0
2	1052899	299	0
2	1052899	300	-nan
2	1052899	301	0
2	1052899	302	0
2	1052899	303	0
2	1052899	304	0
2	1052899	305	0
2	1052899	306	-nan
2	1052899	307	0
2	1052899	308	0
2	1052899	309	0
2	1052899	310	0
2	1052899	311	0
2	1052899	312	0
2	1052899	313	0
2	1052899	314	0
2	1052899	315	0
2	1052899	316	0
2	1052899	317	0
2	1052899	318	0
2	1052899	319	0
2	1052899	320	0.5
2	1052899	321	0
2	1052899	322	0
2	1052899	323	0
2	1052899	324	0
2	1052899	325	0
2	1052899	326	0
2	1052899	327	0
2	1052899	328	0.14285714285714
2	1052899	329	0
2	1052899	330	0
2	1052899	331	0
2	1052899	332	0
2	1052899	333	0
2	1052899	334	0
2	1052899	335	0
2	1052899	336	0
2	1052899	337	0.33333333333333
2	1052899	338	0
2	1052899	339	-nan
2	1052899	340	0.5
2	1052899	341	0
2	1052899	342	0
2	1052899	343	0
2	1052899	344	0
2	1052899	345	0
2	1052899	346	0
2	1052899	347	0
2	1052899	348	0
2	1052899	349	0
2	1052899	350	-nan
2	1052899	351	0
2	1052899	352	0
2	1052899	353	0
2	1052899	354	0
2	1052899	355	0
2	1052899	356	0
2	1052899	357	0
2	1052899	358	0
2	1052899	359	0
2	1052899	360	0
2	1052899	361	-nan
2	1052899	362	0
2	1052899	363	0
2	1052899	364	0
2	1052899	365	0
2	1052899	366	0
2	1052899	367	0
2	1052899	368	0.25
2	1052899	369	0
2	1052899	370	0
2	1052899	371	-nan
2	1052899	372	0
2	1052899	373	0
2	1052899	374	0
2	1052899	375	0
2	1052899	376	0
2	1052899	377	0
2	1052899	378	0
2	1052899	379	0
2	1052899	380	0
2	1052899	381	0
2	1052899	382	0
2	1052899	383	0
2	1052899	384	0
2	1052899	385	-nan
2	1052899	386	0
2	1052899	387	0
2	1052899	388	0
2	1052899	389	0
2	1052899	390	0
2	1052899	391	0
2	1052899	392	0
2	1052899	393	0
2	1052899	394	0
2	1052899	395	0
2	1052899	396	0
2	1052899	397	-nan
2	1052899	398	0
2	1052899	399	0
2	1052899	400	0
2	1052899	401	0
2	1052899	402	0.5
2	1052899	403	-nan
2	1052899	404	0
2	1052899	405	0
2	1052899	406	0
2	1052899	407	0.33333333333333
2	1052899	408	0
2	1052899	409	0
2	1052899	410	0.33333333333333
2	1052899	411	0
2	1052899	412	0
2	1052899	413	0
2	1052899	414	0
2	1052899	415	0
2	1052899	416	0
2	1052899	417	0
2	1052899	418	0
2	1052899	419	0
2	1052899	420	0
2	1052899	421	0
2	1052899	422	-nan
2	1052899	423	0
2	1052899	424	0
2	1052899	425	0
2	1052899	426	0
2	1052899	427	0
2	1052899	428	0
2	1052899	429	0
2	1052899	430	0
2	1052899	431	-nan
2	1052899	432	-nan
2	1052899	433	0
2	1052899	434	0.5
2	1052899	435	0
2	1052899	436	0
2	1052899	437	0
2	1052899	438	-nan
2	1052899	439	0
2	1052899	440	0
2	1052899	441	-nan
2	1052899	442	0
2	1052899	443	-nan
2	1052899	444	0
2	1052899	445	0
2	1052899	446	-nan
2	1052899	447	0
2	1052899	448	0
2	1052899	449	0
2	1052899	450	0
2	1052899	451	0
2	1052899	452	-nan
2	1052899	453	0
2	1052899	454	0
2	1052899	455	-nan
2	1052899	456	1
2	1052899	457	0
2	1052899	458	0
2	1052899	459	0
2	1052899	460	0
2	1052899	461	-nan
2	1052899	462	0
2	1052899	463	0
2	1052899	464	0
2	1052899	465	0
2	1052899	466	-nan
2	1052899	467	0
2	1052899	468	0
2	1052899	469	0.33333333333333
2	1052899	470	0
2	1052899	471	0
2	1052899	472	-nan
2	1052899	473	0
2	1052899	474	0
2	1052899	475	0
2	1052899	476	0
2	1052899	477	0
2	1052899	478	0
2	1052899	479	0
2	1052899	480	0
2	1052899	481	0