version 2
run General-18-20140101-23:37:11-24991
attr D lce
attr F spr
attr R lru
attr a 1
attr configname General
attr csize 10^4
attr datetime 20140101-23:37:11
attr experiment General
attr inifile omnetpp.ini
attr iterationvars "$net=simple_scenario_cache_at_border, $rep=0, $a=1, $F=spr, $ttl=1000, $D=lce, $R=lru, $csize=10^4"
attr iterationvars2 "$net=simple_scenario_cache_at_border, $rep=0, $a=1, $F=spr, $ttl=1000, $D=lce, $R=lru, $csize=10^4, $repetition=0"
attr measurement "$net=simple_scenario_cache_at_border, $rep=0, $a=1, $F=spr, $ttl=1000, $D=lce, $R=lru, $csize=10^4"
attr net simple_scenario_cache_at_border
attr network networks.${net=simple_scenario_cache_in_the_core,simple_scenario_cache_at_border}_network
attr processid 24991
attr rep 0
attr repetition 0
attr replication #0
attr resultdir results
attr runnumber 18
attr seedset 0
attr ttl 1000

vector 108  simple_scenario_cache_at_border_network.node[0].content_store  hit_node[0]  ETV
108	1510999	1	0
108	1510999	2	0
108	1510999	3	0
108	1510999	4	0
108	1510999	5	0
108	1510999	6	0
108	1510999	7	0
108	1510999	8	0
108	1510999	9	0
108	1510999	10	0
108	1510999	11	0
108	1510999	12	0
108	1510999	13	0
108	1510999	14	0
108	1510999	15	0
108	1510999	16	0
108	1510999	17	0
108	1510999	18	0
108	1510999	19	0
108	1510999	20	0
108	1510999	21	0
108	1510999	22	0
108	1510999	23	0
108	1510999	24	0
108	1510999	25	0
108	1510999	26	0
108	1510999	27	0
108	1510999	28	0
108	1510999	29	0
108	1510999	30	0
108	1510999	31	0
108	1510999	32	0
108	1510999	33	0
108	1510999	34	0
108	1510999	35	0
108	1510999	36	0
108	1510999	37	0
108	1510999	38	0
108	1510999	39	0
108	1510999	40	0
108	1510999	41	0
108	1510999	42	0
108	1510999	43	0
108	1510999	44	0
108	1510999	45	0
108	1510999	46	0
108	1510999	47	0
108	1510999	48	0
108	1510999	49	0
108	1510999	50	0
108	1510999	51	0
108	1510999	52	0
108	1510999	53	0
108	1510999	54	0
108	1510999	55	0
108	1510999	56	0
108	1510999	57	0
108	1510999	58	0
108	1510999	59	0
108	1510999	60	0
108	1510999	61	0
108	1510999	62	0
108	1510999	63	0
108	1510999	64	0
108	1510999	65	0
108	1510999	66	0
108	1510999	67	0
108	1510999	68	0
108	1510999	69	0
108	1510999	70	0
108	1510999	71	0
108	1510999	72	0
108	1510999	73	0
108	1510999	74	0
108	1510999	75	0
108	1510999	76	0
108	1510999	77	0
108	1510999	78	0
108	1510999	79	0
108	1510999	80	0
108	1510999	81	0
108	1510999	82	0
108	1510999	83	0
108	1510999	84	0
108	1510999	85	0
108	1510999	86	0
108	1510999	87	0
108	1510999	88	0
108	1510999	89	0
108	1510999	90	0
108	1510999	91	0
108	1510999	92	0
108	1510999	93	0
108	1510999	94	0
108	1510999	95	0
108	1510999	96	0
108	1510999	97	0
108	1510999	98	0
108	1510999	99	0
108	1510999	100	0
108	1510999	101	0
108	1510999	102	0
108	1510999	103	0
108	1510999	104	0
108	1510999	105	0
108	1510999	106	0
108	1510999	107	0
108	1510999	108	0
108	1510999	109	0
108	1510999	110	0
108	1510999	111	0
108	1510999	112	0
108	1510999	113	0
108	1510999	114	0
108	1510999	115	0
108	1510999	116	0
108	1510999	117	0
108	1510999	118	0
108	1510999	119	0
108	1510999	120	0
108	1510999	121	0
108	1510999	122	0
108	1510999	123	0
108	1510999	124	0
108	1510999	125	0
108	1510999	126	0
108	1510999	127	0
108	1510999	128	0
108	1510999	129	0
108	1510999	130	0
108	1510999	131	0
108	1510999	132	0
108	1510999	133	0
108	1510999	134	0
108	1510999	135	0
108	1510999	136	0
108	1510999	137	0
108	1510999	138	0
108	1510999	139	0
108	1510999	140	0
108	1510999	141	0
108	1510999	142	0
108	1510999	143	0
108	1510999	144	0
108	1510999	145	0
108	1510999	146	0
108	1510999	147	0
108	1510999	148	0
108	1510999	149	0
108	1510999	150	0
108	1510999	151	0
108	1510999	152	0
108	1510999	153	0
108	1510999	154	0
108	1510999	155	0
108	1510999	156	0
108	1510999	157	0
108	1510999	158	0
108	1510999	159	0
108	1510999	160	0
108	1510999	161	0
108	1510999	162	0
108	1510999	163	0
108	1510999	164	0
108	1510999	165	0
108	1510999	166	0
108	1510999	167	0
108	1510999	168	0
108	1510999	169	0
108	1510999	170	0
108	1510999	171	0
108	1510999	172	0
108	1510999	173	0
108	1510999	174	0
108	1510999	175	0
108	1510999	176	0
108	1510999	177	0
108	1510999	178	0
108	1510999	179	0
108	1510999	180	0
108	1510999	181	0
108	1510999	182	0
108	1510999	183	0
108	1510999	184	0
108	1510999	185	0
108	1510999	186	0
108	1510999	187	0
108	1510999	188	0
108	1510999	189	0
108	1510999	190	0
108	1510999	191	0
108	1510999	192	0
108	1510999	193	0
108	1510999	194	0
108	1510999	195	0
108	1510999	196	0
108	1510999	197	0
108	1510999	198	0
108	1510999	199	0
108	1510999	200	0
108	1510999	201	0
108	1510999	202	0
108	1510999	203	0
108	1510999	204	0
108	1510999	205	0
108	1510999	206	0
108	1510999	207	0
108	1510999	208	0
108	1510999	209	0
108	1510999	210	0
108	1510999	211	0
108	1510999	212	0
108	1510999	213	0
108	1510999	214	0
108	1510999	215	0
108	1510999	216	0
108	1510999	217	0
108	1510999	218	0
108	1510999	219	0
108	1510999	220	0
108	1510999	221	0
108	1510999	222	0
108	1510999	223	0
108	1510999	224	0
108	1510999	225	0
108	1510999	226	0
108	1510999	227	0
108	1510999	228	0
108	1510999	229	0
108	1510999	230	0
108	1510999	231	0
108	1510999	232	0
108	1510999	233	0
108	1510999	234	0
108	1510999	235	0
108	1510999	236	0
108	1510999	237	0
108	1510999	238	0
108	1510999	239	0
108	1510999	240	0
108	1510999	241	0
108	1510999	242	0
108	1510999	243	0
108	1510999	244	0
108	1510999	245	0
108	1510999	246	0
108	1510999	247	0
108	1510999	248	0
108	1510999	249	0
108	1510999	250	0
108	1510999	251	0
108	1510999	252	0
108	1510999	253	0
108	1510999	254	0
108	1510999	255	0
108	1510999	256	0
108	1510999	257	0
108	1510999	258	0
108	1510999	259	0
108	1510999	260	0
108	1510999	261	0
108	1510999	262	0
108	1510999	263	0
108	1510999	264	0
108	1510999	265	0
108	1510999	266	0
108	1510999	267	0
108	1510999	268	0
108	1510999	269	0
108	1510999	270	0
108	1510999	271	0
108	1510999	272	0
108	1510999	273	0
108	1510999	274	0
108	1510999	275	0
108	1510999	276	0
108	1510999	277	0
108	1510999	278	0
108	1510999	279	0
108	1510999	280	0
108	1510999	281	0
108	1510999	282	0
108	1510999	283	0
108	1510999	284	0
108	1510999	285	0
108	1510999	286	0
108	1510999	287	0
108	1510999	288	0
108	1510999	289	0
108	1510999	290	0
108	1510999	291	0
108	1510999	292	0
108	1510999	293	0
108	1510999	294	0
108	1510999	295	0
108	1510999	296	0
108	1510999	297	0
108	1510999	298	0
108	1510999	299	0
108	1510999	300	0
108	1510999	301	0
108	1510999	302	0
108	1510999	303	0
108	1510999	304	0
108	1510999	305	0
108	1510999	306	0
108	1510999	307	0
108	1510999	308	0
108	1510999	309	0
108	1510999	310	0
108	1510999	311	0
108	1510999	312	0
108	1510999	313	0
108	1510999	314	0
108	1510999	315	0
108	1510999	316	0
108	1510999	317	0
108	1510999	318	0
108	1510999	319	0
108	1510999	320	0
108	1510999	321	0
108	1510999	322	0
108	1510999	323	0
108	1510999	324	0
108	1510999	325	0
108	1510999	326	0
108	1510999	327	0
108	1510999	328	0
108	1510999	329	0
108	1510999	330	0
108	1510999	331	0
108	1510999	332	0
108	1510999	333	0
108	1510999	334	0
108	1510999	335	0
108	1510999	336	0
108	1510999	337	0
108	1510999	338	0
108	1510999	339	0
108	1510999	340	0
108	1510999	341	0
108	1510999	342	0
108	1510999	343	0
108	1510999	344	0
108	1510999	345	0
108	1510999	346	0
108	1510999	347	0
108	1510999	348	0
108	1510999	349	0
108	1510999	350	0
108	1510999	351	0
108	1510999	352	0
108	1510999	353	0
108	1510999	354	0
108	1510999	355	0
108	1510999	356	0
108	1510999	357	0
108	1510999	358	0
108	1510999	359	0
108	1510999	360	0
108	1510999	361	0
108	1510999	362	0
108	1510999	363	0
108	1510999	364	0
108	1510999	365	0
108	1510999	366	0
108	1510999	367	0
108	1510999	368	0
108	1510999	369	0
108	1510999	370	0
108	1510999	371	0
108	1510999	372	0
108	1510999	373	0
108	1510999	374	0
108	1510999	375	0
108	1510999	376	0
108	1510999	377	0
108	1510999	378	0
108	1510999	379	0
108	1510999	380	0
108	1510999	381	0
108	1510999	382	0
108	1510999	383	0
108	1510999	384	0
108	1510999	385	0
108	1510999	386	0
108	1510999	387	0
108	1510999	388	0
108	1510999	389	0
108	1510999	390	0
108	1510999	391	0
108	1510999	392	0
108	1510999	393	0
108	1510999	394	0
108	1510999	395	0
108	1510999	396	0
108	1510999	397	0
108	1510999	398	0
108	1510999	399	0
108	1510999	400	0
108	1510999	401	0
108	1510999	402	0
108	1510999	403	0
108	1510999	404	0
108	1510999	405	0
108	1510999	406	0
108	1510999	407	0
108	1510999	408	0
108	1510999	409	0
108	1510999	410	0
108	1510999	411	0
108	1510999	412	0
108	1510999	413	0
108	1510999	414	0
108	1510999	415	0
108	1510999	416	0
108	1510999	417	0
108	1510999	418	0
108	1510999	419	0
108	1510999	420	0
108	1510999	421	0
108	1510999	422	0
108	1510999	423	0
108	1510999	424	0
108	1510999	425	0
108	1510999	426	0
108	1510999	427	0
108	1510999	428	0
108	1510999	429	0
108	1510999	430	0
108	1510999	431	0
108	1510999	432	0
108	1510999	433	0
108	1510999	434	0
108	1510999	435	0
108	1510999	436	0
108	1510999	437	0
108	1510999	438	0
108	1510999	439	0
108	1510999	440	0
108	1510999	441	0
108	1510999	442	0
108	1510999	443	0
108	1510999	444	0
108	1510999	445	0
108	1510999	446	0
108	1510999	447	0
108	1510999	448	0
108	1510999	449	0
108	1510999	450	0
108	1510999	451	0
108	1510999	452	0
108	1510999	453	0
108	1510999	454	0
108	1510999	455	0
108	1510999	456	0
108	1510999	457	0
108	1510999	458	0
108	1510999	459	0
108	1510999	460	0
108	1510999	461	0
108	1510999	462	0
108	1510999	463	0
108	1510999	464	0
108	1510999	465	0
108	1510999	466	0
108	1510999	467	0
108	1510999	468	0
108	1510999	469	0
108	1510999	470	0
108	1510999	471	0
108	1510999	472	0
108	1510999	473	0
108	1510999	474	0
108	1510999	475	0
108	1510999	476	0
108	1510999	477	0
108	1510999	478	0
108	1510999	479	0
108	1510999	480	0
108	1510999	481	0
108	1510999	482	0
108	1510999	483	0
108	1510999	484	0
108	1510999	485	0
108	1510999	486	0
108	1510999	487	0
108	1510999	488	0
108	1510999	489	0
108	1510999	490	0
108	1510999	491	0
108	1510999	492	0
108	1510999	493	0
108	1510999	494	0
108	1510999	495	0
108	1510999	496	0
108	1510999	497	0
108	1510999	498	0
108	1510999	499	0
108	1510999	500	0
108	1510999	501	0
108	1510999	502	0
108	1510999	503	0
108	1510999	504	0
108	1510999	505	0
108	1510999	506	0
108	1510999	507	0
108	1510999	508	0
108	1510999	509	0
108	1510999	510	0
108	1510999	511	0
108	1510999	512	0
108	1510999	513	0
108	1510999	514	0
108	1510999	515	0
108	1510999	516	0
108	1510999	517	0
108	1510999	518	0
108	1510999	519	0
108	1510999	520	0
108	1510999	521	0
108	1510999	522	0
108	1510999	523	0
108	1510999	524	0
108	1510999	525	0
108	1510999	526	0
108	1510999	527	0
108	1510999	528	0
108	1510999	529	0
108	1510999	530	0
108	1510999	531	0
108	1510999	532	0
108	1510999	533	0
108	1510999	534	0
108	1510999	535	0
108	1510999	536	0
108	1510999	537	0
108	1510999	538	0
108	1510999	539	0
108	1510999	540	0
108	1510999	541	0
108	1510999	542	0
108	1510999	543	0
108	1510999	544	0
108	1510999	545	0
108	1510999	546	0
108	1510999	547	0
108	1510999	548	0
108	1510999	549	0
108	1510999	550	0
108	1510999	551	0
108	1510999	552	0
108	1510999	553	0
108	1510999	554	0
108	1510999	555	0
108	1510999	556	0
108	1510999	557	0
108	1510999	558	0
108	1510999	559	0
108	1510999	560	0
108	1510999	561	0
108	1510999	562	0
108	1510999	563	0
108	1510999	564	0
108	1510999	565	0
108	1510999	566	0
108	1510999	567	0
108	1510999	568	0
108	1510999	569	0
108	1510999	570	0
108	1510999	571	0
108	1510999	572	0
108	1510999	573	0
108	1510999	574	0
108	1510999	575	0
108	1510999	576	0
108	1510999	577	0
108	1510999	578	0
108	1510999	579	0
108	1510999	580	0
108	1510999	581	0
108	1510999	582	0
108	1510999	583	0
108	1510999	584	0
108	1510999	585	0
108	1510999	586	0
108	1510999	587	0
108	1510999	588	0
108	1510999	589	0
108	1510999	590	0
108	1510999	591	0
108	1510999	592	0
108	1510999	593	0
108	1510999	594	0
108	1510999	595	0
108	1510999	596	0
108	1510999	597	0
108	1510999	598	0
108	1510999	599	0
108	1510999	600	0
108	1510999	601	0
108	1510999	602	0
108	1510999	603	0
108	1510999	604	0
108	1510999	605	0
108	1510999	606	0
108	1510999	607	0
108	1510999	608	0
108	1510999	609	0
108	1510999	610	0
108	1510999	611	0
108	1510999	612	0
108	1510999	613	0
108	1510999	614	0
108	1510999	615	0
108	1510999	616	0
108	1510999	617	0
108	1510999	618	0
108	1510999	619	0
108	1510999	620	0
108	1510999	621	0
108	1510999	622	0
108	1510999	623	0
108	1510999	624	0
108	1510999	625	0
108	1510999	626	0
108	1510999	627	0
108	1510999	628	0
108	1510999	629	0
108	1510999	630	0
108	1510999	631	0
108	1510999	632	0
108	1510999	633	0
108	1510999	634	0
108	1510999	635	0
108	1510999	636	0
108	1510999	637	0
108	1510999	638	0
108	1510999	639	0
108	1510999	640	0
108	1510999	641	0
108	1510999	642	0
108	1510999	643	0
108	1510999	644	0
108	1510999	645	0
108	1510999	646	0
108	1510999	647	0
108	1510999	648	0
108	1510999	649	0
108	1510999	650	0
108	1510999	651	0
108	1510999	652	0
108	1510999	653	0
108	1510999	654	0
108	1510999	655	0
108	1510999	656	0
108	1510999	657	0
108	1510999	658	0
108	1510999	659	0
108	1510999	660	0
108	1510999	661	0
108	1510999	662	0
108	1510999	663	0
108	1510999	664	0
108	1510999	665	0
108	1510999	666	0
108	1510999	667	0
108	1510999	668	0
108	1510999	669	0
108	1510999	670	0
108	1510999	671	0
108	1510999	672	0
108	1510999	673	0
108	1510999	674	0
108	1510999	675	0
108	1510999	676	0
108	1510999	677	0
108	1510999	678	0
108	1510999	679	0
108	1510999	680	0
108	1510999	681	0
108	1510999	682	0
108	1510999	683	0
108	1510999	684	0
108	1510999	685	0
108	1510999	686	0
108	1510999	687	0
108	1510999	688	0
108	1510999	689	0
108	1510999	690	0
108	1510999	691	0
108	1510999	692	0
108	1510999	693	0
108	1510999	694	0
108	1510999	695	0
108	1510999	696	0
108	1510999	697	0
108	1510999	698	0
108	1510999	699	0
108	1510999	700	0
108	1510999	701	0
108	1510999	702	0
108	1510999	703	0
108	1510999	704	0
108	1510999	705	0
108	1510999	706	0
108	1510999	707	0
108	1510999	708	0
108	1510999	709	0
108	1510999	710	0
108	1510999	711	0
108	1510999	712	0
108	1510999	713	0
108	1510999	714	0
108	1510999	715	0
108	1510999	716	0
108	1510999	717	0
108	1510999	718	0
108	1510999	719	0
108	1510999	720	0
108	1510999	721	0
108	1510999	722	0
108	1510999	723	0
108	1510999	724	0
108	1510999	725	0
108	1510999	726	0
108	1510999	727	0
108	1510999	728	0
108	1510999	729	0
108	1510999	730	0
108	1510999	731	0
108	1510999	732	0
108	1510999	733	0
108	1510999	734	0
108	1510999	735	0
108	1510999	736	0
108	1510999	737	0
108	1510999	738	0
108	1510999	739	0
108	1510999	740	0
108	1510999	741	0
108	1510999	742	0
108	1510999	743	0
108	1510999	744	0
108	1510999	745	0
108	1510999	746	0
108	1510999	747	0
108	1510999	748	0
108	1510999	749	0
108	1510999	750	0
vector 109  simple_scenario_cache_at_border_network.node[1].content_store  hit_node[1]  ETV
109	1510999	1	1
109	1510999	2	-nan
109	1510999	3	-nan
109	1510999	4	1
109	1510999	5	-nan
109	1510999	6	-nan
109	1510999	7	-nan
109	1510999	8	-nan
109	1510999	9	-nan
109	1510999	10	-nan
109	1510999	11	-nan
109	1510999	12	1
109	1510999	13	1
109	1510999	14	-nan
109	1510999	15	1
109	1510999	16	1
109	1510999	17	1
109	1510999	18	1
109	1510999	19	1
109	1510999	20	-nan
109	1510999	21	1
109	1510999	22	-nan
109	1510999	23	-nan
109	1510999	24	1
109	1510999	25	1
109	1510999	26	-nan
109	1510999	27	-nan
109	1510999	28	-nan
109	1510999	29	-nan
109	1510999	30	1
109	1510999	31	-nan
109	1510999	32	1
109	1510999	33	-nan
109	1510999	34	1
109	1510999	35	-nan
109	1510999	36	-nan
109	1510999	37	1
109	1510999	38	-nan
109	1510999	39	-nan
109	1510999	40	1
109	1510999	41	1
109	1510999	42	-nan
109	1510999	43	1
109	1510999	44	-nan
109	1510999	45	-nan
109	1510999	46	-nan
109	1510999	47	-nan
109	1510999	48	-nan
109	1510999	49	1
109	1510999	50	-nan
109	1510999	51	1
109	1510999	52	-nan
109	1510999	53	-nan
109	1510999	54	-nan
109	1510999	55	-nan
109	1510999	56	1
109	1510999	57	-nan
109	1510999	58	1
109	1510999	59	1
109	1510999	60	-nan
109	1510999	61	-nan
109	1510999	62	1
109	1510999	63	-nan
109	1510999	64	1
109	1510999	65	-nan
109	1510999	66	1
109	1510999	67	1
109	1510999	68	1
109	1510999	69	1
109	1510999	70	1
109	1510999	71	-nan
109	1510999	72	-nan
109	1510999	73	1
109	1510999	74	1
109	1510999	75	1
109	1510999	76	-nan
109	1510999	77	-nan
109	1510999	78	1
109	1510999	79	-nan
109	1510999	80	1
109	1510999	81	1
109	1510999	82	-nan
109	1510999	83	1
109	1510999	84	-nan
109	1510999	85	-nan
109	1510999	86	-nan
109	1510999	87	-nan
109	1510999	88	-nan
109	1510999	89	-nan
109	1510999	90	1
109	1510999	91	-nan
109	1510999	92	-nan
109	1510999	93	1
109	1510999	94	1
109	1510999	95	-nan
109	1510999	96	1
109	1510999	97	1
109	1510999	98	-nan
109	1510999	99	-nan
109	1510999	100	1
109	1510999	101	-nan
109	1510999	102	1
109	1510999	103	1
109	1510999	104	-nan
109	1510999	105	1
109	1510999	106	1
109	1510999	107	1
109	1510999	108	-nan
109	1510999	109	-nan
109	1510999	110	1
109	1510999	111	-nan
109	1510999	112	1
109	1510999	113	1
109	1510999	114	1
109	1510999	115	1
109	1510999	116	1
109	1510999	117	-nan
109	1510999	118	1
109	1510999	119	-nan
109	1510999	120	1
109	1510999	121	-nan
109	1510999	122	-nan
109	1510999	123	-nan
109	1510999	124	-nan
109	1510999	125	-nan
109	1510999	126	1
109	1510999	127	-nan
109	1510999	128	-nan
109	1510999	129	-nan
109	1510999	130	-nan
109	1510999	131	1
109	1510999	132	-nan
109	1510999	133	-nan
109	1510999	134	1
109	1510999	135	1
109	1510999	136	-nan
109	1510999	137	1
109	1510999	138	1
109	1510999	139	1
109	1510999	140	1
109	1510999	141	-nan
109	1510999	142	-nan
109	1510999	143	1
109	1510999	144	1
109	1510999	145	-nan
109	1510999	146	1
109	1510999	147	-nan
109	1510999	148	-nan
109	1510999	149	-nan
109	1510999	150	-nan
109	1510999	151	1
109	1510999	152	1
109	1510999	153	1
109	1510999	154	-nan
109	1510999	155	1
109	1510999	156	-nan
109	1510999	157	-nan
109	1510999	158	-nan
109	1510999	159	1
109	1510999	160	-nan
109	1510999	161	1
109	1510999	162	1
109	1510999	163	-nan
109	1510999	164	1
109	1510999	165	-nan
109	1510999	166	-nan
109	1510999	167	1
109	1510999	168	1
109	1510999	169	-nan
109	1510999	170	1
109	1510999	171	-nan
109	1510999	172	1
109	1510999	173	-nan
109	1510999	174	1
109	1510999	175	-nan
109	1510999	176	1
109	1510999	177	-nan
109	1510999	178	1
109	1510999	179	1
109	1510999	180	1
109	1510999	181	-nan
109	1510999	182	1
109	1510999	183	-nan
109	1510999	184	1
109	1510999	185	-nan
109	1510999	186	1
109	1510999	187	1
109	1510999	188	1
109	1510999	189	1
109	1510999	190	1
109	1510999	191	-nan
109	1510999	192	1
109	1510999	193	1
109	1510999	194	-nan
109	1510999	195	1
109	1510999	196	1
109	1510999	197	1
109	1510999	198	-nan
109	1510999	199	1
109	1510999	200	1
109	1510999	201	-nan
109	1510999	202	1
109	1510999	203	-nan
109	1510999	204	1
109	1510999	205	1
109	1510999	206	-nan
109	1510999	207	-nan
109	1510999	208	1
109	1510999	209	1
109	1510999	210	1
109	1510999	211	-nan
109	1510999	212	-nan
109	1510999	213	1
109	1510999	214	1
109	1510999	215	1
109	1510999	216	1
109	1510999	217	1
109	1510999	218	-nan
109	1510999	219	1
109	1510999	220	-nan
109	1510999	221	1
109	1510999	222	1
109	1510999	223	1
109	1510999	224	-nan
109	1510999	225	-nan
109	1510999	226	-nan
109	1510999	227	1
109	1510999	228	1
109	1510999	229	-nan
109	1510999	230	-nan
109	1510999	231	-nan
109	1510999	232	-nan
109	1510999	233	1
109	1510999	234	1
109	1510999	235	1
109	1510999	236	-nan
109	1510999	237	-nan
109	1510999	238	1
109	1510999	239	-nan
109	1510999	240	1
109	1510999	241	1
109	1510999	242	-nan
109	1510999	243	1
109	1510999	244	-nan
109	1510999	245	-nan
109	1510999	246	-nan
109	1510999	247	-nan
109	1510999	248	1
109	1510999	249	1
109	1510999	250	1
109	1510999	251	-nan
109	1510999	252	-nan
109	1510999	253	-nan
109	1510999	254	1
109	1510999	255	-nan
109	1510999	256	-nan
109	1510999	257	-nan
109	1510999	258	-nan
109	1510999	259	1
109	1510999	260	1
109	1510999	261	-nan
109	1510999	262	-nan
109	1510999	263	1
109	1510999	264	1
109	1510999	265	1
109	1510999	266	-nan
109	1510999	267	-nan
109	1510999	268	1
109	1510999	269	-nan
109	1510999	270	-nan
109	1510999	271	-nan
109	1510999	272	-nan
109	1510999	273	-nan
109	1510999	274	1
109	1510999	275	1
109	1510999	276	1
109	1510999	277	-nan
109	1510999	278	1
109	1510999	279	-nan
109	1510999	280	1
109	1510999	281	-nan
109	1510999	282	-nan
109	1510999	283	1
109	1510999	284	1
109	1510999	285	1
109	1510999	286	-nan
109	1510999	287	1
109	1510999	288	1
109	1510999	289	-nan
109	1510999	290	-nan
109	1510999	291	-nan
109	1510999	292	-nan
109	1510999	293	1
109	1510999	294	-nan
109	1510999	295	1
109	1510999	296	1
109	1510999	297	1
109	1510999	298	1
109	1510999	299	-nan
109	1510999	300	-nan
109	1510999	301	-nan
109	1510999	302	1
109	1510999	303	-nan
109	1510999	304	1
109	1510999	305	1
109	1510999	306	-nan
109	1510999	307	-nan
109	1510999	308	-nan
109	1510999	309	-nan
109	1510999	310	-nan
109	1510999	311	-nan
109	1510999	312	1
109	1510999	313	1
109	1510999	314	-nan
109	1510999	315	-nan
109	1510999	316	-nan
109	1510999	317	-nan
109	1510999	318	-nan
109	1510999	319	-nan
109	1510999	320	-nan
109	1510999	321	-nan
109	1510999	322	-nan
109	1510999	323	-nan
109	1510999	324	1
109	1510999	325	1
109	1510999	326	1
109	1510999	327	1
109	1510999	328	-nan
109	1510999	329	-nan
109	1510999	330	-nan
109	1510999	331	1
109	1510999	332	-nan
109	1510999	333	-nan
109	1510999	334	-nan
109	1510999	335	-nan
109	1510999	336	-nan
109	1510999	337	-nan
109	1510999	338	-nan
109	1510999	339	1
109	1510999	340	1
109	1510999	341	1
109	1510999	342	1
109	1510999	343	-nan
109	1510999	344	-nan
109	1510999	345	1
109	1510999	346	-nan
109	1510999	347	1
109	1510999	348	1
109	1510999	349	-nan
109	1510999	350	1
109	1510999	351	-nan
109	1510999	352	1
109	1510999	353	-nan
109	1510999	354	1
109	1510999	355	1
109	1510999	356	1
109	1510999	357	1
109	1510999	358	-nan
109	1510999	359	-nan
109	1510999	360	-nan
109	1510999	361	1
109	1510999	362	-nan
109	1510999	363	1
109	1510999	364	-nan
109	1510999	365	1
109	1510999	366	1
109	1510999	367	1
109	1510999	368	1
109	1510999	369	-nan
109	1510999	370	-nan
109	1510999	371	-nan
109	1510999	372	1
109	1510999	373	-nan
109	1510999	374	1
109	1510999	375	1
109	1510999	376	-nan
109	1510999	377	-nan
109	1510999	378	-nan
109	1510999	379	1
109	1510999	380	-nan
109	1510999	381	-nan
109	1510999	382	1
109	1510999	383	-nan
109	1510999	384	1
109	1510999	385	-nan
109	1510999	386	-nan
109	1510999	387	1
109	1510999	388	1
109	1510999	389	-nan
109	1510999	390	-nan
109	1510999	391	1
109	1510999	392	-nan
109	1510999	393	-nan
109	1510999	394	-nan
109	1510999	395	-nan
109	1510999	396	-nan
109	1510999	397	-nan
109	1510999	398	1
109	1510999	399	1
109	1510999	400	-nan
109	1510999	401	1
109	1510999	402	-nan
109	1510999	403	1
109	1510999	404	1
109	1510999	405	-nan
109	1510999	406	-nan
109	1510999	407	-nan
109	1510999	408	-nan
109	1510999	409	-nan
109	1510999	410	1
109	1510999	411	-nan
109	1510999	412	-nan
109	1510999	413	-nan
109	1510999	414	1
109	1510999	415	1
109	1510999	416	-nan
109	1510999	417	-nan
109	1510999	418	1
109	1510999	419	-nan
109	1510999	420	-nan
109	1510999	421	-nan
109	1510999	422	1
109	1510999	423	1
109	1510999	424	1
109	1510999	425	-nan
109	1510999	426	1
109	1510999	427	1
109	1510999	428	1
109	1510999	429	1
109	1510999	430	1
109	1510999	431	1
109	1510999	432	-nan
109	1510999	433	-nan
109	1510999	434	-nan
109	1510999	435	1
109	1510999	436	1
109	1510999	437	-nan
109	1510999	438	-nan
109	1510999	439	-nan
109	1510999	440	1
109	1510999	441	-nan
109	1510999	442	1
109	1510999	443	-nan
109	1510999	444	1
109	1510999	445	-nan
109	1510999	446	-nan
109	1510999	447	-nan
109	1510999	448	1
109	1510999	449	-nan
109	1510999	450	1
109	1510999	451	1
109	1510999	452	-nan
109	1510999	453	1
109	1510999	454	-nan
109	1510999	455	1
109	1510999	456	0.95238095238095
109	1510999	457	-nan
109	1510999	458	1
109	1510999	459	1
109	1510999	460	1
109	1510999	461	1
109	1510999	462	1
109	1510999	463	1
109	1510999	464	1
109	1510999	465	1
109	1510999	466	1
109	1510999	467	-nan
109	1510999	468	1
109	1510999	469	-nan
109	1510999	470	-nan
109	1510999	471	1
109	1510999	472	-nan
109	1510999	473	-nan
109	1510999	474	-nan
109	1510999	475	1
109	1510999	476	1
109	1510999	477	-nan
109	1510999	478	-nan
109	1510999	479	-nan
109	1510999	480	-nan
109	1510999	481	1
109	1510999	482	-nan
109	1510999	483	1
109	1510999	484	-nan
109	1510999	485	1
109	1510999	486	1
109	1510999	487	1
109	1510999	488	1
109	1510999	489	-nan
109	1510999	490	-nan
109	1510999	491	-nan
109	1510999	492	-nan
109	1510999	493	-nan
109	1510999	494	1
109	1510999	495	-nan
109	1510999	496	1
109	1510999	497	-nan
109	1510999	498	1
109	1510999	499	-nan
109	1510999	500	1
109	1510999	501	-nan
109	1510999	502	-nan
109	1510999	503	1
109	1510999	504	1
109	1510999	505	1
109	1510999	506	-nan
109	1510999	507	-nan
109	1510999	508	-nan
109	1510999	509	1
109	1510999	510	1
109	1510999	511	-nan
109	1510999	512	1
109	1510999	513	1
109	1510999	514	-nan
109	1510999	515	1
109	1510999	516	1
109	1510999	517	1
109	1510999	518	-nan
109	1510999	519	1
109	1510999	520	-nan
109	1510999	521	1
109	1510999	522	-nan
109	1510999	523	1
109	1510999	524	-nan
109	1510999	525	-nan
109	1510999	526	1
109	1510999	527	1
109	1510999	528	-nan
109	1510999	529	1
109	1510999	530	-nan
109	1510999	531	1
109	1510999	532	-nan
109	1510999	533	1
109	1510999	534	1
109	1510999	535	1
109	1510999	536	1
109	1510999	537	-nan
109	1510999	538	-nan
109	1510999	539	1
109	1510999	540	-nan
109	1510999	541	1
109	1510999	542	-nan
109	1510999	543	-nan
109	1510999	544	1
109	1510999	545	-nan
109	1510999	546	1
109	1510999	547	1
109	1510999	548	1
109	1510999	549	1
109	1510999	550	1
109	1510999	551	-nan
109	1510999	552	-nan
109	1510999	553	1
109	1510999	554	1
109	1510999	555	1
109	1510999	556	0.94117647058824
109	1510999	557	-nan
109	1510999	558	-nan
109	1510999	559	1
109	1510999	560	1
109	1510999	561	-nan
109	1510999	562	1
109	1510999	563	-nan
109	1510999	564	-nan
109	1510999	565	-nan
109	1510999	566	-nan
109	1510999	567	-nan
109	1510999	568	-nan
109	1510999	569	-nan
109	1510999	570	-nan
109	1510999	571	-nan
109	1510999	572	-nan
109	1510999	573	-nan
109	1510999	574	1
109	1510999	575	1
109	1510999	576	-nan
109	1510999	577	-nan
109	1510999	578	-nan
109	1510999	579	-nan
109	1510999	580	1
109	1510999	581	1
109	1510999	582	-nan
109	1510999	583	1
109	1510999	584	1
109	1510999	585	-nan
109	1510999	586	1
109	1510999	587	-nan
109	1510999	588	1
109	1510999	589	-nan
109	1510999	590	1
109	1510999	591	1
109	1510999	592	-nan
109	1510999	593	1
109	1510999	594	1
109	1510999	595	0.96
109	1510999	596	1
109	1510999	597	1
109	1510999	598	-nan
109	1510999	599	1
109	1510999	600	-nan
109	1510999	601	1
109	1510999	602	1
109	1510999	603	-nan
109	1510999	604	-nan
109	1510999	605	-nan
109	1510999	606	-nan
109	1510999	607	1
109	1510999	608	1
109	1510999	609	-nan
109	1510999	610	1
109	1510999	611	-nan
109	1510999	612	-nan
109	1510999	613	-nan
109	1510999	614	-nan
109	1510999	615	1
109	1510999	616	1
109	1510999	617	-nan
109	1510999	618	0.94117647058824
109	1510999	619	1
109	1510999	620	-nan
109	1510999	621	-nan
109	1510999	622	-nan
109	1510999	623	1
109	1510999	624	1
109	1510999	625	1
109	1510999	626	-nan
109	1510999	627	-nan
109	1510999	628	1
109	1510999	629	-nan
109	1510999	630	1
109	1510999	631	1
109	1510999	632	1
109	1510999	633	-nan
109	1510999	634	-nan
109	1510999	635	1
109	1510999	636	-nan
109	1510999	637	1
109	1510999	638	-nan
109	1510999	639	1
109	1510999	640	1
109	1510999	641	-nan
109	1510999	642	1
109	1510999	643	1
109	1510999	644	1
109	1510999	645	1
109	1510999	646	1
109	1510999	647	-nan
109	1510999	648	-nan
109	1510999	649	-nan
109	1510999	650	-nan
109	1510999	651	-nan
109	1510999	652	-nan
109	1510999	653	-nan
109	1510999	654	-nan
109	1510999	655	1
109	1510999	656	1
109	1510999	657	1
109	1510999	658	1
109	1510999	659	-nan
109	1510999	660	-nan
109	1510999	661	-nan
109	1510999	662	-nan
109	1510999	663	1
109	1510999	664	-nan
109	1510999	665	1
109	1510999	666	1
109	1510999	667	-nan
109	1510999	668	-nan
109	1510999	669	-nan
109	1510999	670	1
109	1510999	671	-nan
109	1510999	672	-nan
109	1510999	673	-nan
109	1510999	674	1
109	1510999	675	-nan
109	1510999	676	-nan
109	1510999	677	-nan
109	1510999	678	-nan
109	1510999	679	-nan
109	1510999	680	1
109	1510999	681	1
109	1510999	682	-nan
109	1510999	683	1
109	1510999	684	1
109	1510999	685	1
109	1510999	686	-nan
109	1510999	687	1
109	1510999	688	-nan
109	1510999	689	1
109	1510999	690	-nan
109	1510999	691	1
109	1510999	692	-nan
109	1510999	693	-nan
109	1510999	694	1
109	1510999	695	-nan
109	1510999	696	1
109	1510999	697	0.91666666666667
109	1510999	698	1
109	1510999	699	-nan
109	1510999	700	0.94444444444444
109	1510999	701	-nan
109	1510999	702	1
109	1510999	703	-nan
109	1510999	704	-nan
109	1510999	705	1
109	1510999	706	-nan
109	1510999	707	-nan
109	1510999	708	1
109	1510999	709	-nan
109	1510999	710	-nan
109	1510999	711	-nan
109	1510999	712	-nan
109	1510999	713	-nan
109	1510999	714	1
109	1510999	715	1
109	1510999	716	-nan
109	1510999	717	-nan
109	1510999	718	-nan
109	1510999	719	-nan
109	1510999	720	1
109	1510999	721	-nan
109	1510999	722	1
109	1510999	723	0.92857142857143
109	1510999	724	-nan
109	1510999	725	1
109	1510999	726	-nan
109	1510999	727	0.93333333333333
109	1510999	728	-nan
109	1510999	729	-nan
109	1510999	730	1
109	1510999	731	-nan
109	1510999	732	-nan
109	1510999	733	1
109	1510999	734	-nan
109	1510999	735	1
109	1510999	736	1
109	1510999	737	1
109	1510999	738	1
109	1510999	739	-nan
109	1510999	740	1
109	1510999	741	1
109	1510999	742	-nan
109	1510999	743	1
109	1510999	744	1
109	1510999	745	1
109	1510999	746	-nan
109	1510999	747	1
109	1510999	748	-nan
109	1510999	749	1
109	1510999	750	1
vector 110  simple_scenario_cache_at_border_network.node[2].content_store  hit_node[2]  ETV
110	1510999	1	-nan
110	1510999	2	0
110	1510999	3	0
110	1510999	4	-nan
110	1510999	5	0
110	1510999	6	0
110	1510999	7	0
110	1510999	8	0
110	1510999	9	0
110	1510999	10	0
110	1510999	11	0
110	1510999	12	-nan
110	1510999	13	-nan
110	1510999	14	0
110	1510999	15	-nan
110	1510999	16	-nan
110	1510999	17	-nan
110	1510999	18	-nan
110	1510999	19	-nan
110	1510999	20	0
110	1510999	21	-nan
110	1510999	22	0
110	1510999	23	0
110	1510999	24	-nan
110	1510999	25	-nan
110	1510999	26	0
110	1510999	27	0
110	1510999	28	0
110	1510999	29	0
110	1510999	30	-nan
110	1510999	31	0
110	1510999	32	-nan
110	1510999	33	0
110	1510999	34	-nan
110	1510999	35	0
110	1510999	36	0
110	1510999	37	-nan
110	1510999	38	0
110	1510999	39	0
110	1510999	40	-nan
110	1510999	41	-nan
110	1510999	42	0
110	1510999	43	-nan