version 2
run General-2-20150602-11:31:46-4093
attr D prob_cache
attr F spr
attr R lru
attr a 0.5
attr configname General
attr datetime 20150602-11:31:46
attr experiment General
attr inifile omnetpp.ini.video
attr iterationvars "$net=video_simple_scenario, $rep=0, $a=0.5, $F=spr, $ttl=1000, $D=prob_cache, $R=lru"
attr iterationvars2 "$net=video_simple_scenario, $rep=0, $a=0.5, $F=spr, $ttl=1000, $D=prob_cache, $R=lru, $repetition=0"
attr measurement "$net=video_simple_scenario, $rep=0, $a=0.5, $F=spr, $ttl=1000, $D=prob_cache, $R=lru"
attr net video_simple_scenario
attr network networks.${net=video_simple_scenario}_network
attr processid 4093
attr rep 0
attr repetition 0
attr replication #0
attr resultdir results
attr runnumber 2
attr seedset 0
attr ttl 1000

vector 6  video_simple_scenario_network.node[0].content_store  hit_node[0]  ETV
6	36639	1	0
6	36639	2	0
6	36639	3	-nan
6	36639	4	0
6	36639	5	0
6	36639	6	0
6	36639	7	0
6	36639	8	0
6	36639	9	0
6	36639	10	0
6	36639	11	0
6	36639	12	0
6	36639	13	0
6	36639	14	0
6	36639	15	-nan
6	36639	16	0
6	36639	17	0
6	36639	18	-nan
6	36639	19	0
6	36639	20	-nan
6	36639	21	0
6	36639	22	-nan
6	36639	23	-nan
6	36639	24	0
6	36639	25	-nan
6	36639	26	-nan
6	36639	27	0
6	36639	28	0
6	36639	29	-nan
6	36639	30	-nan
6	36639	31	0
6	36639	32	-nan
6	36639	33	0
6	36639	34	-nan
6	36639	35	0
6	36639	36	-nan
6	36639	37	0
6	36639	38	0
6	36639	39	0
6	36639	40	-nan
6	36639	41	-nan
6	36639	42	-nan
6	36639	43	-nan
6	36639	44	0
6	36639	45	-nan
6	36639	46	0
6	36639	47	-nan
6	36639	48	-nan
6	36639	49	-nan
6	36639	50	0
6	36639	51	0
6	36639	52	0
6	36639	53	0
6	36639	54	0
6	36639	55	0
6	36639	56	-nan
6	36639	57	-nan
6	36639	58	-nan
6	36639	59	-nan
6	36639	60	0
6	36639	61	0
6	36639	62	-nan
6	36639	63	0
6	36639	64	-nan
6	36639	65	-nan
6	36639	66	0
6	36639	67	-nan
6	36639	68	0
6	36639	69	-nan
6	36639	70	-nan
6	36639	71	0
6	36639	72	-nan
6	36639	73	-nan
6	36639	74	-nan
6	36639	75	0
6	36639	76	0
6	36639	77	0
6	36639	78	0
6	36639	79	0
6	36639	80	-nan
6	36639	81	-nan
6	36639	82	-nan
6	36639	83	-nan
6	36639	84	-nan
6	36639	85	0
6	36639	86	0
6	36639	87	-nan
6	36639	88	-nan
6	36639	89	0
6	36639	90	-nan
6	36639	91	0
6	36639	92	0
6	36639	93	-nan
6	36639	94	0
6	36639	95	-nan
6	36639	96	-nan
6	36639	97	0
6	36639	98	-nan
6	36639	99	-nan
6	36639	100	-nan
6	36639	101	0
6	36639	102	-nan
6	36639	103	-nan
6	36639	104	-nan
6	36639	105	0
6	36639	106	-nan
6	36639	107	0
6	36639	108	-nan
6	36639	109	-nan
6	36639	110	-nan
6	36639	111	0
6	36639	112	-nan
6	36639	113	-nan
6	36639	114	0
6	36639	115	0
6	36639	116	0
6	36639	117	-nan
6	36639	118	-nan
6	36639	119	-nan
6	36639	120	0
6	36639	121	0
6	36639	122	-nan
6	36639	123	-nan
6	36639	124	-nan
6	36639	125	0
6	36639	126	-nan
6	36639	127	-nan
6	36639	128	0
6	36639	129	-nan
6	36639	130	-nan
6	36639	131	0
6	36639	132	0
6	36639	133	-nan
6	36639	134	0
6	36639	135	-nan
6	36639	136	-nan
6	36639	137	-nan
6	36639	138	-nan
6	36639	139	0
6	36639	140	-nan
6	36639	141	-nan
6	36639	142	0
6	36639	143	-nan
6	36639	144	0
6	36639	145	-nan
6	36639	146	-nan
6	36639	147	-nan
6	36639	148	-nan
6	36639	149	-nan
6	36639	150	-nan
6	36639	151	0
6	36639	152	0
6	36639	153	-nan
6	36639	154	-nan
6	36639	155	-nan
6	36639	156	-nan
6	36639	157	0
6	36639	158	-nan
6	36639	159	-nan
6	36639	160	-nan
6	36639	161	-nan
6	36639	162	0
6	36639	163	0
6	36639	164	-nan
6	36639	165	-nan
6	36639	166	-nan
6	36639	167	-nan
6	36639	168	0
6	36639	169	-nan
6	36639	170	-nan
6	36639	171	0
6	36639	172	-nan
6	36639	173	-nan
6	36639	174	-nan
6	36639	175	-nan
6	36639	176	-nan
6	36639	177	0
6	36639	178	0
6	36639	179	0
6	36639	180	0
6	36639	181	-nan
6	36639	182	-nan
6	36639	183	0
6	36639	184	-nan
6	36639	185	0
6	36639	186	0
6	36639	187	-nan
6	36639	188	-nan
6	36639	189	-nan
6	36639	190	0
6	36639	191	-nan
6	36639	192	0
6	36639	193	0
6	36639	194	0
6	36639	195	-nan
6	36639	196	-nan
6	36639	197	-nan
6	36639	198	0
6	36639	199	0
6	36639	200	-nan
6	36639	201	0
6	36639	202	-nan
6	36639	203	0
6	36639	204	-nan
6	36639	205	0
6	36639	206	0
6	36639	207	0
6	36639	208	-nan
6	36639	209	0
6	36639	210	-nan
6	36639	211	-nan
6	36639	212	0
6	36639	213	-nan
6	36639	214	-nan
6	36639	215	-nan
6	36639	216	-nan
6	36639	217	-nan
6	36639	218	-nan
6	36639	219	-nan
6	36639	220	-nan
6	36639	221	0
6	36639	222	-nan
6	36639	223	-nan
6	36639	224	0
6	36639	225	-nan
6	36639	226	-nan
6	36639	227	0
6	36639	228	-nan
6	36639	229	-nan
6	36639	230	-nan
6	36639	231	-nan
6	36639	232	-nan
6	36639	233	-nan
6	36639	234	0
6	36639	235	-nan
6	36639	236	-nan
6	36639	237	-nan
6	36639	238	-nan
6	36639	239	0
6	36639	240	-nan
6	36639	241	-nan
6	36639	242	-nan
6	36639	243	-nan
6	36639	244	-nan
6	36639	245	-nan
6	36639	246	-nan
6	36639	247	-nan
6	36639	248	-nan
6	36639	249	-nan
6	36639	250	0
6	36639	251	-nan
6	36639	252	-nan
6	36639	253	0
6	36639	254	-nan
6	36639	255	-nan
6	36639	256	-nan
6	36639	257	-nan
6	36639	258	-nan
6	36639	259	-nan
6	36639	260	0
6	36639	261	0
6	36639	262	0
6	36639	263	-nan
6	36639	264	-nan
6	36639	265	-nan
6	36639	266	0
6	36639	267	-nan
6	36639	268	0
6	36639	269	-nan
6	36639	270	-nan
6	36639	271	0
6	36639	272	-nan
6	36639	273	-nan
6	36639	274	-nan
6	36639	275	-nan
6	36639	276	-nan
6	36639	277	0
6	36639	278	-nan
6	36639	279	-nan
6	36639	280	-nan
6	36639	281	-nan
6	36639	282	-nan
6	36639	283	-nan
6	36639	284	0
6	36639	285	0
6	36639	286	-nan
6	36639	287	-nan
6	36639	288	0
6	36639	289	-nan
6	36639	290	-nan
6	36639	291	-nan
6	36639	292	-nan
6	36639	293	-nan
6	36639	294	0
6	36639	295	-nan
6	36639	296	-nan
6	36639	297	-nan
6	36639	298	-nan
6	36639	299	-nan
6	36639	300	-nan
6	36639	301	-nan
6	36639	302	-nan
6	36639	303	-nan
6	36639	304	-nan
6	36639	305	-nan
6	36639	306	-nan
6	36639	307	-nan
6	36639	308	-nan
6	36639	309	-nan
6	36639	310	0
6	36639	311	0
6	36639	312	-nan
6	36639	313	-nan
6	36639	314	-nan
6	36639	315	0
6	36639	316	-nan
6	36639	317	0
6	36639	318	0
6	36639	319	-nan
6	36639	320	-nan
6	36639	321	-nan
6	36639	322	-nan
6	36639	323	-nan
6	36639	324	-nan
6	36639	325	-nan
6	36639	326	-nan
6	36639	327	-nan
6	36639	328	-nan
6	36639	329	0
6	36639	330	-nan
6	36639	331	-nan
6	36639	332	-nan
6	36639	333	-nan
6	36639	334	-nan
6	36639	335	-nan
6	36639	336	-nan
6	36639	337	-nan
6	36639	338	-nan
6	36639	339	0
6	36639	340	0
6	36639	341	-nan
6	36639	342	-nan
6	36639	343	-nan
6	36639	344	0
6	36639	345	-nan
6	36639	346	-nan
6	36639	347	-nan
6	36639	348	-nan
6	36639	349	-nan
6	36639	350	-nan
6	36639	351	-nan
6	36639	352	-nan
6	36639	353	-nan
6	36639	354	-nan
6	36639	355	-nan
6	36639	356	0
6	36639	357	-nan
6	36639	358	-nan
6	36639	359	-nan
6	36639	360	-nan
6	36639	361	-nan
6	36639	362	-nan
6	36639	363	-nan
6	36639	364	0
6	36639	365	-nan
6	36639	366	0
6	36639	367	-nan
6	36639	368	-nan
6	36639	369	-nan
6	36639	370	0
6	36639	371	-nan
6	36639	372	-nan
6	36639	373	-nan
6	36639	374	-nan
6	36639	375	-nan
6	36639	376	-nan
6	36639	377	0
6	36639	378	-nan
6	36639	379	-nan
6	36639	380	0
6	36639	381	0
6	36639	382	-nan
6	36639	383	-nan
6	36639	384	-nan
6	36639	385	0
6	36639	386	-nan
6	36639	387	-nan
6	36639	388	-nan
6	36639	389	-nan
6	36639	390	-nan
6	36639	391	0
6	36639	392	-nan
6	36639	393	-nan
6	36639	394	-nan
6	36639	395	0
6	36639	396	-nan
6	36639	397	-nan
6	36639	398	0
6	36639	399	-nan
6	36639	400	-nan
6	36639	401	-nan
6	36639	402	-nan
6	36639	403	-nan
6	36639	404	-nan
6	36639	405	0
6	36639	406	-nan
6	36639	407	-nan
6	36639	408	-nan
6	36639	409	-nan
6	36639	410	-nan
6	36639	411	-nan
6	36639	412	-nan
6	36639	413	-nan
6	36639	414	0
6	36639	415	0
6	36639	416	-nan
6	36639	417	-nan
6	36639	418	-nan
6	36639	419	-nan
6	36639	420	-nan
6	36639	421	-nan
6	36639	422	0
6	36639	423	-nan
6	36639	424	-nan
6	36639	425	-nan
6	36639	426	-nan
6	36639	427	-nan
6	36639	428	-nan
6	36639	429	-nan
6	36639	430	0
6	36639	431	-nan
6	36639	432	0
6	36639	433	-nan
6	36639	434	-nan
6	36639	435	-nan
6	36639	436	0
6	36639	437	-nan
6	36639	438	-nan
6	36639	439	-nan
6	36639	440	-nan
6	36639	441	0
6	36639	442	-nan
6	36639	443	-nan
6	36639	444	-nan
6	36639	445	-nan
6	36639	446	0
6	36639	447	-nan
6	36639	448	-nan
6	36639	449	-nan
6	36639	450	0
6	36639	451	-nan
6	36639	452	-nan
6	36639	453	-nan
6	36639	454	0
6	36639	455	-nan
6	36639	456	-nan
6	36639	457	0
6	36639	458	-nan
6	36639	459	-nan
6	36639	460	0
6	36639	461	-nan
6	36639	462	-nan
6	36639	463	0
6	36639	464	0
6	36639	465	-nan
6	36639	466	-nan
6	36639	467	-nan
6	36639	468	-nan
6	36639	469	-nan
6	36639	470	-nan
6	36639	471	-nan
6	36639	472	0
6	36639	473	-nan
6	36639	474	-nan
6	36639	475	-nan
6	36639	476	-nan
6	36639	477	-nan
6	36639	478	-nan
6	36639	479	-nan
6	36639	480	-nan
6	36639	481	-nan
6	36639	482	0
6	36639	483	-nan
6	36639	484	-nan
6	36639	485	-nan
6	36639	486	0
6	36639	487	-nan
6	36639	488	-nan
6	36639	489	0
6	36639	490	-nan
6	36639	491	-nan
6	36639	492	-nan
6	36639	493	-nan
6	36639	494	0
6	36639	495	-nan
6	36639	496	0
6	36639	497	0
6	36639	498	-nan
6	36639	499	0
6	36639	500	-nan
6	36639	501	-nan
6	36639	502	0
6	36639	503	-nan
6	36639	504	-nan
6	36639	505	-nan
6	36639	506	0
6	36639	507	0
6	36639	508	-nan
6	36639	509	0
6	36639	510	0
6	36639	511	0
6	36639	512	0
6	36639	513	-nan
6	36639	514	-nan
6	36639	515	-nan
6	36639	516	-nan
6	36639	517	0
6	36639	518	-nan
6	36639	519	-nan
6	36639	520	-nan
6	36639	521	-nan
6	36639	522	-nan
6	36639	523	-nan
6	36639	524	-nan
6	36639	525	-nan
6	36639	526	-nan
6	36639	527	0
6	36639	528	-nan
6	36639	529	-nan
6	36639	530	-nan
6	36639	531	-nan
6	36639	532	-nan
6	36639	533	0
6	36639	534	-nan
6	36639	535	0
6	36639	536	-nan
6	36639	537	-nan
6	36639	538	0
6	36639	539	0
6	36639	540	-nan
6	36639	541	-nan
6	36639	542	-nan
6	36639	543	-nan
6	36639	544	-nan
6	36639	545	-nan
6	36639	546	-nan
6	36639	547	-nan
6	36639	548	0
6	36639	549	-nan
6	36639	550	-nan
6	36639	551	-nan
6	36639	552	-nan
6	36639	553	0
6	36639	554	-nan
6	36639	555	-nan
6	36639	556	-nan
6	36639	557	0
6	36639	558	-nan
6	36639	559	-nan
6	36639	560	0
6	36639	561	-nan
6	36639	562	-nan
6	36639	563	-nan
6	36639	564	-nan
6	36639	565	-nan
6	36639	566	-nan
6	36639	567	-nan
6	36639	568	0
6	36639	569	-nan
6	36639	570	-nan
6	36639	571	-nan
6	36639	572	-nan
6	36639	573	-nan
6	36639	574	-nan
6	36639	575	-nan
6	36639	576	-nan
6	36639	577	-nan
6	36639	578	-nan
6	36639	579	-nan
6	36639	580	-nan
6	36639	581	0
6	36639	582	-nan
6	36639	583	-nan
6	36639	584	0
6	36639	585	-nan
6	36639	586	0
6	36639	587	0
6	36639	588	-nan
6	36639	589	-nan
6	36639	590	-nan
6	36639	591	-nan
6	36639	592	0
6	36639	593	-nan
6	36639	594	-nan
6	36639	595	0
6	36639	596	-nan
6	36639	597	-nan
6	36639	598	-nan
6	36639	599	-nan
6	36639	600	0
6	36639	601	-nan
6	36639	602	-nan
6	36639	603	-nan
6	36639	604	-nan
6	36639	605	-nan
6	36639	606	-nan
6	36639	607	-nan
6	36639	608	-nan
6	36639	609	-nan
6	36639	610	-nan
6	36639	611	-nan
6	36639	612	0
6	36639	613	0
6	36639	614	-nan
6	36639	615	-nan
6	36639	616	-nan
6	36639	617	-nan
6	36639	618	-nan
6	36639	619	-nan
6	36639	620	-nan
6	36639	621	0
6	36639	622	-nan
6	36639	623	-nan
6	36639	624	-nan
6	36639	625	-nan
6	36639	626	-nan
6	36639	627	-nan
6	36639	628	0
6	36639	629	-nan
6	36639	630	-nan
6	36639	631	-nan
6	36639	632	-nan
6	36639	633	-nan
6	36639	634	-nan
6	36639	635	-nan
6	36639	636	-nan
6	36639	637	-nan
6	36639	638	0
6	36639	639	-nan
6	36639	640	-nan
6	36639	641	0
6	36639	642	-nan
6	36639	643	-nan
6	36639	644	-nan
6	36639	645	-nan
6	36639	646	0
6	36639	647	-nan
6	36639	648	0
6	36639	649	-nan
6	36639	650	-nan
6	36639	651	0
6	36639	652	-nan
6	36639	653	-nan
6	36639	654	-nan
6	36639	655	-nan
6	36639	656	0
6	36639	657	-nan
6	36639	658	-nan
6	36639	659	-nan
6	36639	660	-nan
6	36639	661	0
6	36639	662	-nan
6	36639	663	-nan
6	36639	664	-nan
6	36639	665	-nan
6	36639	666	-nan
6	36639	667	-nan
6	36639	668	0
6	36639	669	-nan
6	36639	670	-nan
6	36639	671	-nan
6	36639	672	-nan
6	36639	673	-nan
6	36639	674	-nan
6	36639	675	-nan
6	36639	676	0
6	36639	677	-nan
6	36639	678	-nan
6	36639	679	-nan
6	36639	680	-nan
6	36639	681	0
6	36639	682	-nan
6	36639	683	0
6	36639	684	-nan
6	36639	685	-nan
6	36639	686	-nan
6	36639	687	0
6	36639	688	-nan
6	36639	689	0
6	36639	690	0
6	36639	691	-nan
6	36639	692	0
6	36639	693	-nan
6	36639	694	-nan
6	36639	695	0
6	36639	696	-nan
6	36639	697	-nan
6	36639	698	0
6	36639	699	-nan
6	36639	700	-nan
6	36639	701	-nan
6	36639	702	-nan
6	36639	703	-nan
6	36639	704	-nan
6	36639	705	-nan
6	36639	706	-nan
6	36639	707	-nan
6	36639	708	-nan
6	36639	709	-nan
6	36639	710	-nan
6	36639	711	-nan
6	36639	712	0
6	36639	713	-nan
6	36639	714	-nan
6	36639	715	-nan
6	36639	716	-nan
6	36639	717	-nan
6	36639	718	0
6	36639	719	-nan
6	36639	720	0
6	36639	721	0
6	36639	722	-nan
6	36639	723	-nan
6	36639	724	-nan
6	36639	725	-nan
6	36639	726	-nan
6	36639	727	-nan
6	36639	728	0
6	36639	729	-nan
6	36639	730	-nan
6	36639	731	-nan
6	36639	732	-nan
6	36639	733	-nan
6	36639	734	-nan
6	36639	735	-nan
6	36639	736	-nan
6	36639	737	-nan
6	36639	738	-nan
6	36639	739	-nan
6	36639	740	-nan
6	36639	741	-nan
6	36639	742	-nan
6	36639	743	-nan
6	36639	744	-nan
6	36639	745	-nan
6	36639	746	-nan
6	36639	747	-nan
6	36639	748	-nan
6	36639	749	-nan
6	36639	750	-nan
6	36639	751	-nan
6	36639	752	-nan
6	36639	753	-nan
6	36639	754	-nan
6	36639	755	-nan
6	36639	756	-nan
6	36639	757	-nan
6	36639	758	0
6	36639	759	-nan
6	36639	760	-nan
6	36639	761	-nan
6	36639	762	-nan
6	36639	763	-nan
6	36639	764	0
6	36639	765	-nan
6	36639	766	-nan
6	36639	767	-nan
6	36639	768	0
6	36639	769	-nan
6	36639	770	-nan
6	36639	771	-nan
6	36639	772	-nan
6	36639	773	-nan
6	36639	774	-nan
6	36639	775	-nan
6	36639	776	-nan
6	36639	777	-nan
6	36639	778	-nan
6	36639	779	-nan
6	36639	780	-nan
6	36639	781	-nan
6	36639	782	-nan
6	36639	783	-nan
6	36639	784	0
6	36639	785	0
6	36639	786	-nan
6	36639	787	-nan
6	36639	788	-nan
6	36639	789	-nan
6	36639	790	0
6	36639	791	-nan
6	36639	792	-nan
6	36639	793	0
6	36639	794	0
6	36639	795	-nan
6	36639	796	-nan
6	36639	797	-nan
6	36639	798	-nan
6	36639	799	-nan
6	36639	800	-nan
6	36639	801	-nan
6	36639	802	-nan
6	36639	803	0
6	36639	804	-nan
6	36639	805	-nan
6	36639	806	-nan
6	36639	807	-nan
6	36639	808	-nan
6	36639	809	-nan
6	36639	810	-nan
6	36639	811	-nan
6	36639	812	-nan
6	36639	813	-nan
6	36639	814	0
6	36639	815	-nan
6	36639	816	-nan
6	36639	817	-nan
6	36639	818	-nan
6	36639	819	-nan
6	36639	820	-nan
6	36639	821	-nan
6	36639	822	-nan
6	36639	823	-nan
6	36639	824	-nan
6	36639	825	-nan
6	36639	826	-nan
6	36639	827	-nan
6	36639	828	0
6	36639	829	-nan
6	36639	830	-nan
6	36639	831	-nan
6	36639	832	-nan
6	36639	833	-nan
6	36639	834	-nan
6	36639	835	-nan
6	36639	836	-nan
6	36639	837	-nan
6	36639	838	0
6	36639	839	-nan
6	36639	840	-nan
6	36639	841	-nan
6	36639	842	-nan
6	36639	843	-nan
6	36639	844	-nan
6	36639	845	-nan
6	36639	846	-nan
6	36639	847	-nan
6	36639	848	-nan
6	36639	849	-nan
6	36639	850	-nan
6	36639	851	0
6	36639	852	-nan
6	36639	853	0
6	36639	854	-nan
6	36639	855	0
6	36639	856	-nan
6	36639	857	-nan
6	36639	858	-nan
6	36639	859	-nan
6	36639	860	-nan
6	36639	861	-nan
6	36639	862	-nan
6	36639	863	-nan
6	36639	864	-nan
6	36639	865	-nan
6	36639	866	-nan
6	36639	867	-nan
6	36639	868	0
6	36639	869	-nan
6	36639	870	-nan
6	36639	871	-nan
6	36639	872	-nan
6	36639	873	-nan
6	36639	874	-nan
6	36639	875	-nan
6	36639	876	0
6	36639	877	-nan
6	36639	878	0
6	36639	879	-nan
6	36639	880	-nan
6	36639	881	-nan
6	36639	882	-nan
6	36639	883	-nan
6	36639	884	-nan
6	36639	885	-nan
6	36639	886	0
6	36639	887	-nan
6	36639	888	-nan
6	36639	889	0
6	36639	890	-nan
6	36639	891	-nan
6	36639	892	0
6	36639	893	-nan
6	36639	894	0
6	36639	895	-nan
6	36639	896	0
6	36639	897	-nan
6	36639	898	0
6	36639	899	0
6	36639	900	-nan
6	36639	901	-nan
6	36639	902	-nan
6	36639	903	-nan
6	36639	904	-nan
6	36639	905	-nan
6	36639	906	-nan
6	36639	907	-nan
6	36639	908	-nan
6	36639	909	-nan
6	36639	910	-nan
6	36639	911	-nan
6	36639	912	0
6	36639	913	-nan
6	36639	914	-nan
6	36639	915	0
6	36639	916	-nan
6	36639	917	-nan
6	36639	918	-nan
6	36639	919	-nan
6	36639	920	-nan
6	36639	921	0
6	36639	922	-nan
6	36639	923	-nan
6	36639	924	-nan
6	36639	925	-nan
6	36639	926	-nan
6	36639	927	-nan
6	36639	928	0
6	36639	929	-nan
6	36639	930	-nan
6	36639	931	-nan
6	36639	932	-nan
6	36639	933	-nan
6	36639	934	-nan
6	36639	935	-nan
6	36639	936	-nan
6	36639	937	0
6	36639	938	-nan
6	36639	939	-nan
6	36639	940	-nan
6	36639	941	-nan
6	36639	942	0
6	36639	943	-nan
6	36639	944	-nan
6	36639	945	-nan
6	36639	946	-nan
6	36639	947	-nan
6	36639	948	-nan
6	36639	949	0
6	36639	950	-nan
6	36639	951	-nan
6	36639	952	-nan
6	36639	953	-nan
6	36639	954	-nan
6	36639	955	-nan
6	36639	956	-nan
6	36639	957	-nan
6	36639	958	-nan
6	36639	959	-nan
6	36639	960	-nan
6	36639	961	0
6	36639	962	-nan
6	36639	963	-nan
6	36639	964	-nan
6	36639	965	-nan
6	36639	966	-nan
6	36639	967	0
6	36639	968	0
6	36639	969	-nan
6	36639	970	-nan
6	36639	971	-nan
6	36639	972	-nan
6	36639	973	-nan
6	36639	974	-nan
6	36639	975	-nan
6	36639	976	-nan
6	36639	977	-nan
6	36639	978	-nan
6	36639	979	-nan
6	36639	980	0
6	36639	981	-nan
6	36639	982	-nan
6	36639	983	-nan
6	36639	984	-nan
6	36639	985	-nan
6	36639	986	-nan
6	36639	987	-nan
6	36639	988	-nan
6	36639	989	-nan
6	36639	990	0
6	36639	991	-nan
6	36639	992	0
6	36639	993	-nan
6	36639	994	-nan
6	36639	995	-nan
6	36639	996	-nan
6	36639	997	-nan
6	36639	998	-nan
6	36639	999	-nan
6	36639	1000	0
6	36639	1001	-nan
6	36639	1002	-nan
6	36639	1003	-nan
6	36639	1004	-nan
6	36639	1005	-nan
6	36639	1006	-nan
6	36639	1007	-nan
6	36639	1008	-nan
6	36639	1009	0
6	36639	1010	-nan
6	36639	1011	-nan
6	36639	1012	-nan
6	36639	1013	-nan
6	36639	1014	-nan
6	36639	1015	-nan
6	36639	1016	-nan
6	36639	1017	-nan
6	36639	1018	-nan
6	36639	1019	-nan
6	36639	1020	-nan
6	36639	1021	-nan
6	36639	1022	-nan
6	36639	1023	-nan
6	36639	1024	-nan
6	36639	1025	-nan
6	36639	1026	0
6	36639	1027	-nan
6	36639	1028	-nan
6	36639	1029	-nan
6	36639	1030	-nan
6	36639	1031	-nan
6	36639	1032	-nan
6	36639	1033	-nan
6	36639	1034	-nan
6	36639	1035	-nan
6	36639	1036	0
6	36639	1037	-nan
6	36639	1038	-nan
6	36639	1039	-nan
6	36639	1040	-nan
6	36639	1041	-nan
6	36639	1042	0
6	36639	1043	-nan
6	36639	1044	-nan
6	36639	1045	0
6	36639	1046	-nan
6	36639	1047	0
6	36639	1048	-nan
6	36639	1049	-nan
6	36639	1050	-nan
6	36639	1051	0
6	36639	1052	-nan
6	36639	1053	0
6	36639	1054	-nan
6	36639	1055	-nan
6	36639	1056	0
6	36639	1057	-nan
6	36639	1058	-nan
6	36639	1059	-nan
6	36639	1060	0
6	36639	1061	-nan
6	36639	1062	-nan
6	36639	1063	-nan
6	36639	1064	-nan
6	36639	1065	-nan
6	36639	1066	-nan
6	36639	1067	-nan
6	36639	1068	-nan
6	36639	1069	-nan
6	36639	1070	-nan
6	36639	1071	0
6	36639	1072	-nan
6	36639	1073	0
6	36639	1074	-nan
6	36639	1075	-nan
6	36639	1076	-nan
6	36639	1077	-nan
6	36639	1078	-nan
6	36639	1079	0
6	36639	1080	-nan
6	36639	1081	0
6	36639	1082	-nan
6	36639	1083	-nan
6	36639	1084	-nan
6	36639	1085	-nan
6	36639	1086	0
6	36639	1087	-nan
6	36639	1088	0
6	36639	1089	-nan
6	36639	1090	-nan
6	36639	1091	-nan
6	36639	1092	-nan
6	36639	1093	-nan
6	36639	1094	-nan
6	36639	1095	-nan
6	36639	1096	-nan
6	36639	1097	-nan
6	36639	1098	-nan
6	36639	1099	-nan
6	36639	1100	-nan
6	36639	1101	-nan
6	36639	1102	-nan
6	36639	1103	-nan
6	36639	1104	-nan
6	36639	1105	-nan
6	36639	1106	-nan
6	36639	1107	-nan
6	36639	1108	-nan
6	36639	1109	0
6	36639	1110	-nan
6	36639	1111	-nan
6	36639	1112	-nan
6	36639	1113	-nan
6	36639	1114	-nan
6	36639	1115	-nan
6	36639	1116	-nan
6	36639	1117	-nan
6	36639	1118	-nan
6	36639	1119	-nan
6	36639	1120	-nan
6	36639	1121	-nan
6	36639	1122	0
6	36639	1123	-nan
6	36639	1124	-nan
6	36639	1125	-nan
6	36639	1126	-nan
6	36639	1127	-nan
6	36639	1128	-nan
6	36639	1129	-nan
6	36639	1130	-nan
6	36639	1131	-nan
6	36639	1132	-nan
6	36639	1133	0
6	36639	1134	0
6	36639	1135	-nan
6	36639	1136	-nan
6	36639	1137	-nan
6	36639	1138	-nan
6	36639	1139	0
6	36639	1140	-nan
6	36639	1141	-nan
6	36639	1142	-nan
6	36639	1143	-nan
6	36639	1144	-nan
6	36639	1145	-nan
6	36639	1146	-nan
6	36639	1147	-nan
6	36639	1148	-nan
6	36639	1149	-nan
6	36639	1150	-nan
6	36639	1151	-nan
6	36639	1152	-nan
6	36639	1153	-nan
6	36639	1154	-nan
6	36639	1155	0
6	36639	1156	-nan
6	36639	1157	-nan
6	36639	1158	-nan
6	36639	1159	-nan
6	36639	1160	-nan
6	36639	1161	-nan
6	36639	1162	-nan
6	36639	1163	0
6	36639	1164	-nan
6	36639	1165	-nan
6	36639	1166	-nan
6	36639	1167	0
6	36639	1168	-nan
6	36639	1169	-nan
6	36639	1170	-nan
6	36639	1171	0
6	36639	1172	-nan
6	36639	1173	-nan
6	36639	1174	-nan
6	36639	1175	-nan
6	36639	1176	-nan
6	36639	1177	-nan
6	36639	1178	-nan
6	36639	1179	-nan
6	36639	1180	-nan
6	36639	1181	-nan
6	36639	1182	-nan
6	36639	1183	-nan
6	36639	1184	-nan
6	36639	1185	-nan
6	36639	1186	-nan
6	36639	1187	-nan
6	36639	1188	-nan
6	36639	1189	-nan
6	36639	1190	-nan
6	36639	1191	-nan
6	36639	1192	-nan
6	36639	1193	-nan
6	36639	1194	-nan
6	36639	1195	-nan
6	36639	1196	-nan
6	36639	1197	-nan
6	36639	1198	-nan
6	36639	1199	-nan
6	36639	1200	-nan
6	36639	1201	-nan
6	36639	1202	0
6	36639	1203	-nan
6	36639	1204	-nan
6	36639	1205	-nan
6	36639	1206	-nan
6	36639	1207	-nan
6	36639	1208	-nan
6	36639	1209	0
6	36639	1210	-nan
6	36639	1211	-nan
6	36639	1212	0
6	36639	1213	0
6	36639	1214	0
6	36639	1215	-nan
6	36639	1216	-nan
6	36639	1217	-nan
6	36639	1218	0
6	36639	1219	-nan
6	36639	1220	0
6	36639	1221	-nan
6	36639	1222	-nan
6	36639	1223	-nan
6	36639	1224	0
6	36639	1225	-nan
6	36639	1226	-nan
6	36639	1227	0
6	36639	1228	0
6	36639	1229	-nan
6	36639	1230	-nan
6	36639	1231	-nan
6	36639	1232	-nan
6	36639	1233	-nan
6	36639	1234	-nan
6	36639	1235	-nan
6	36639	1236	-nan
6	36639	1237	-nan
6	36639	1238	-nan
6	36639	1239	0
6	36639	1240	-nan
6	36639	1241	-nan
6	36639	1242	-nan
6	36639	1243	0
6	36639	1244	-nan
6	36639	1245	0
6	36639	1246	-nan
6	36639	1247	-nan
6	36639	1248	0
6	36639	1249	0
6	36639	1250	-nan
6	36639	1251	0
6	36639	1252	0
6	36639	1253	-nan
6	36639	1254	-nan
6	36639	1255	-nan
6	36639	1256	-nan
6	36639	1257	-nan
6	36639	1258	-nan
6	36639	1259	-nan
6	36639	1260	-nan
6	36639	1261	0
6	36639	1262	-nan
6	36639	1263	-nan
6	36639	1264	0
6	36639	1265	-nan
6	36639	1266	-nan
6	36639	1267	-nan
6	36639	1268	-nan
6	36639	1269	-nan
6	36639	1270	-nan
6	36639	1271	-nan
6	36639	1272	-nan
6	36639	1273	-nan
6	36639	1274	-nan
6	36639	1275	-nan
6	36639	1276	-nan
6	36639	1277	0
6	36639	1278	-nan
6	36639	1279	-nan
6	36639	1280	-nan
6	36639	1281	-nan
6	36639	1282	0
6	36639	1283	-nan
6	36639	1284	-nan
6	36639	1285	-nan
6	36639	1286	-nan
6	36639	1287	-nan
6	36639	1288	-nan
6	36639	1289	-nan
6	36639	1290	-nan
6	36639	1291	-nan
6	36639	1292	-nan
6	36639	1293	-nan
6	36639	1294	-nan
6	36639	1295	-nan
6	36639	1296	-nan
6	36639	1297	-nan
6	36639	1298	-nan
6	36639	1299	-nan
6	36639	1300	-nan
6	36639	1301	-nan
6	36639	1302	-nan
6	36639	1303	-nan
6	36639	1304	-nan
6	36639	1305	-nan
6	36639	1306	-nan
6	36639	1307	-nan
6	36639	1308	-nan
6	36639	1309	-nan
6	36639	1310	-nan
6	36639	1311	-nan
6	36639	1312	-nan
6	36639	1313	-nan
6	36639	1314	-nan
6	36639	1315	-nan
6	36639	1316	-nan
6	36639	1317	-nan
6	36639	1318	-nan
6	36639	1319	-nan
6	36639	1320	-nan
6	36639	1321	-nan
6	36639	1322	0
6	36639	1323	-nan
6	36639	1324	-nan
6	36639	1325	-nan
6	36639	1326	-nan
6	36639	1327	-nan
6	36639	1328	-nan
6	36639	1329	-nan
6	36639	1330	-nan
6	36639	1331	-nan
6	36639	1332	0
6	36639	1333	0
6	36639	1334	-nan
6	36639	1335	-nan
6	36639	1336	-nan
6	36639	1337	-nan
6	36639	1338	-nan
6	36639	1339	-nan
6	36639	1340	-nan
6	36639	1341	-nan
6	36639	1342	0
6	36639	1343	0
6	36639	1344	-nan
6	36639	1345	-nan
6	36639	1346	-nan
6	36639	1347	0
6	36639	1348	0
6	36639	1349	-nan
6	36639	1350	-nan
6	36639	1351	-nan
6	36639	1352	0
6	36639	1353	-nan
6	36639	1354	-nan
6	36639	1355	-nan
6	36639	1356	-nan
6	36639	1357	-nan
6	36639	1358	-nan
6	36639	1359	-nan
6	36639	1360	-nan
6	36639	1361	-nan
6	36639	1362	-nan
6	36639	1363	-nan
6	36639	1364	-nan
6	36639	1365	-nan
6	36639	1366	-nan
6	36639	1367	-nan
6	36639	1368	-nan
6	36639	1369	-nan
6	36639	1370	-nan
6	36639	1371	-nan
6	36639	1372	-nan
6	36639	1373	-nan
6	36639	1374	0
6	36639	1375	-nan
6	36639	1376	-nan
6	36639	1377	-nan
6	36639	1378	-nan
6	36639	1379	0
6	36639	1380	-nan
6	36639	1381	-nan
6	36639	1382	-nan
6	36639	1383	0
6	36639	1384	-nan
6	36639	1385	-nan
6	36639	1386	-nan
6	36639	1387	-nan
6	36639	1388	-nan
6	36639	1389	-nan
6	36639	1390	-nan
6	36639	1391	-nan
6	36639	1392	0
6	36639	1393	-nan
6	36639	1394	-nan
6	36639	1395	0
6	36639	1396	0
6	36639	1397	-nan
6	36639	1398	-nan
6	36639	1399	-nan
6	36639	1400	-nan
6	36639	1401	-nan
6	36639	1402	-nan
6	36639	1403	-nan
6	36639	1404	-nan
6	36639	1405	-nan
6	36639	1406	-nan
6	36639	1407	-nan
6	36639	1408	0
6	36639	1409	-nan
6	36639	1410	-nan
6	36639	1411	-nan
6	36639	1412	-nan
6	36639	1413	-nan
6	36639	1414	-nan
6	36639	1415	-nan
6	36639	1416	-nan
6	36639	1417	-nan
6	36639	1418	-nan
6	36639	1419	0
6	36639	1420	-nan
6	36639	1421	-nan
6	36639	1422	0
6	36639	1423	-nan
6	36639	1424	-nan
6	36639	1425	-nan
6	36639	1426	-nan
6	36639	1427	-nan
6	36639	1428	-nan
6	36639	1429	-nan
6	36639	1430	-nan
6	36639	1431	-nan
6	36639	1432	-nan
6	36639	1433	0
6	36639	1434	-nan
6	36639	1435	-nan
6	36639	1436	-nan
6	36639	1437	-nan
6	36639	1438	0
6	36639	1439	-nan
6	36639	1440	0
6	36639	1441	0
6	36639	1442	0
6	36639	1443	0
6	36639	1444	-nan
6	36639	1445	0
6	36639	1446	-nan
6	36639	1447	-nan
6	36639	1448	-nan
6	36639	1449	-nan
6	36639	1450	-nan
6	36639	1451	-nan
6	36639	1452	0
6	36639	1453	-nan
6	36639	1454	-nan
6	36639	1455	-nan
6	36639	1456	-nan
6	36639	1457	-nan
6	36639	1458	-nan
6	36639	1459	-nan
6	36639	1460	-nan
6	36639	1461	0
6	36639	1462	-nan
6	36639	1463	-nan
6	36639	1464	-nan
6	36639	1465	-nan
6	36639	1466	-nan
6	36639	1467	-nan
6	36639	1468	0
6	36639	1469	-nan
6	36639	1470	-nan
6	36639	1471	-nan
6	36639	1472	-nan
6	36639	1473	-nan
6	36639	1474	-nan
6	36639	1475	-nan
6	36639	1476	-nan
6	36639	1477	-nan
6	36639	1478	-nan
6	36639	1479	0
6	36639	1480	-nan
6	36639	1481	-nan
6	36639	1482	-nan
6	36639	1483	-nan
6	36639	1484	-nan
6	36639	1485	-nan
6	36639	1486	-nan
6	36639	1487	-nan
6	36639	1488	-nan
6	36639	1489	-nan
6	36639	1490	-nan
6	36639	1491	-nan
6	36639	1492	-nan
6	36639	1493	-nan
6	36639	1494	-nan
6	36639	1495	-nan
6	36639	1496	-nan
6	36639	1497	-nan
6	36639	1498	-nan
6	36639	1499	-nan
6	36639	1500	-nan
6	36639	1501	-nan
6	36639	1502	0
6	36639	1503	-nan
6	36639	1504	-nan
6	36639	1505	0
6	36639	1506	-nan
6	36639	1507	-nan
6	36639	1508	-nan
6	36639	1509	-nan
6	36639	1510	-nan
6	36639	1511	-nan
6	36639	1512	-nan
6	36639	1513	-nan
6	36639	1514	-nan
6	36639	1515	-nan
6	36639	1516	-nan
6	36639	1517	-nan
6	36639	1518	-nan
6	36639	1519	-nan
6	36639	1520	-nan
6	36639	1521	-nan
6	36639	1522	-nan
6	36639	1523	-nan
6	36639	1524	-nan
6	36639	1525	-nan
6	36639	1526	-nan
6	36639	1527	-nan
6	36639	1528	-nan
6	36639	1529	-nan
6	36639	1530	-nan
6	36639	1531	-nan
6	36639	1532	-nan
6	36639	1533	-nan
6	36639	1534	-nan
6	36639	1535	-nan
6	36639	1536	-nan
6	36639	1537	-nan
6	36639	1538	0
6	36639	1539	-nan
6	36639	1540	0
6	36639	1541	-nan
6	36639	1542	-nan
6	36639	1543	0
6	36639	1544	-nan
6	36639	1545	-nan
6	36639	1546	0
6	36639	1547	-nan
6	36639	1548	-nan
6	36639	1549	0
6	36639	1550	-nan
6	36639	1551	-nan
6	36639	1552	-nan
6	36639	1553	-nan
6	36639	1554	0
6	36639	1555	-nan
6	36639	1556	-nan
6	36639	1557	-nan
6	36639	1558	-nan
6	36639	1559	-nan
6	36639	1560	-nan
6	36639	1561	-nan
6	36639	1562	-nan
6	36639	1563	-nan
6	36639	1564	-nan
6	36639	1565	-nan
6	36639	1566	-nan
6	36639	1567	-nan
6	36639	1568	-nan
6	36639	1569	0
6	36639	1570	-nan
6	36639	1571	-nan
6	36639	1572	-nan
6	36639	1573	0
6	36639	1574	-nan
6	36639	1575	0
6	36639	1576	-nan
6	36639	1577	-nan
6	36639	1578	-nan
6	36639	1579	-nan
6	36639	1580	-nan
6	36639	1581	-nan
6	36639	1582	-nan
6	36639	1583	-nan
6	36639	1584	-nan
6	36639	1585	-nan
6	36639	1586	-nan
6	36639	1587	-nan
6	36639	1588	-nan
6	36639	1589	-nan
6	36639	1590	-nan
6	36639	1591	-nan
6	36639	1592	-nan
6	36639	1593	-nan
6	36639	1594	-nan
6	36639	1595	-nan
6	36639	1596	-nan
6	36639	1597	-nan
6	36639	1598	0
6	36639	1599	-nan
6	36639	1600	0
6	36639	1601	-nan
6	36639	1602	-nan
6	36639	1603	-nan
6	36639	1604	-nan
6	36639	1605	-nan
6	36639	1606	-nan
6	36639	1607	-nan
6	36639	1608	-nan
6	36639	1609	-nan
6	36639	1610	-nan
6	36639	1611	-nan
6	36639	1612	-nan
6	36639	1613	-nan
6	36639	1614	0
6	36639	1615	-nan
6	36639	1616	-nan
6	36639	1617	-nan
6	36639	1618	-nan
6	36639	1619	-nan
6	36639	1620	-nan
6	36639	1621	0
6	36639	1622	-nan
6	36639	1623	0
6	36639	1624	-nan
6	36639	1625	0
6	36639	1626	-nan
6	36639	1627	-nan
6	36639	1628	0
6	36639	1629	0
6	36639	1630	-nan
6	36639	1631	-nan
6	36639	1632	-nan
6	36639	1633	0
6	36639	1634	-nan
6	36639	1635	-nan
6	36639	1636	-nan
6	36639	1637	-nan
6	36639	1638	-nan
6	36639	1639	-nan
6	36639	1640	-nan
6	36639	1641	-nan
6	36639	1642	-nan
6	36639	1643	-nan
6	36639	1644	-nan
6	36639	1645	0
6	36639	1646	-nan
6	36639	1647	-nan
6	36639	1648	-nan
6	36639	1649	-nan
6	36639	1650	-nan
6	36639	1651	-nan
6	36639	1652	-nan
6	36639	1653	-nan
6	36639	1654	-nan
6	36639	1655	-nan
6	36639	1656	-nan
6	36639	1657	-nan
6	36639	1658	-nan
6	36639	1659	-nan
6	36639	1660	-nan
6	36639	1661	0
6	36639	1662	-nan
6	36639	1663	-nan
6	36639	1664	-nan
6	36639	1665	0
6	36639	1666	-nan
6	36639	1667	-nan
6	36639	1668	-nan
6	36639	1669	-nan
6	36639	1670	-nan
6	36639	1671	-nan
6	36639	1672	-nan
6	36639	1673	-nan
6	36639	1674	0
6	36639	1675	-nan
6	36639	1676	-nan
6	36639	1677	-nan
6	36639	1678	-nan
6	36639	1679	-nan
6	36639	1680	-nan
6	36639	1681	-nan
6	36639	1682	-nan
6	36639	1683	-nan
6	36639	1684	-nan
6	36639	1685	-nan
6	36639	1686	-nan
6	36639	1687	-nan
6	36639	1688	-nan
6	36639	1689	-nan
6	36639	1690	-nan
6	36639	1691	-nan
6	36639	1692	-nan
6	36639	1693	0
6	36639	1694	-nan
6	36639	1695	-nan
6	36639	1696	-nan
6	36639	1697	-nan
6	36639	1698	-nan
6	36639	1699	-nan
6	36639	1700	-nan
6	36639	1701	0
6	36639	1702	-nan
6	36639	1703	-nan
6	36639	1704	-nan
6	36639	1705	-nan
6	36639	1706	-nan
6	36639	1707	-nan
6	36639	1708	-nan
6	36639	1709	0
6	36639	1710	-nan
6	36639	1711	-nan
6	36639	1712	0
6	36639	1713	-nan
6	36639	1714	0
6	36639	1715	-nan
6	36639	1716	-nan
6	36639	1717	-nan
6	36639	1718	-nan
6	36639	1719	0
6	36639	1720	-nan
6	36639	1721	-nan
6	36639	1722	-nan
6	36639	1723	-nan
6	36639	1724	0
6	36639	1725	-nan
6	36639	1726	-nan
6	36639	1727	-nan
6	36639	1728	-nan
6	36639	1729	-nan
6	36639	1730	-nan
6	36639	1731	0
6	36639	1732	-nan
6	36639	1733	-nan
6	36639	1734	-nan
6	36639	1735	-nan
6	36639	1736	-nan
6	36639	1737	-nan
6	36639	1738	-nan
6	36639	1739	-nan