version 2
run General-9-20150311-18:59:38-28962
attr D lcd
attr F spr
attr R lru
attr a 0.7
attr configname General
attr datetime 20150311-18:59:38
attr experiment General
attr inifile omnetpp.ini
attr iterationvars "$net=abilene, $rep=0, $a=0.7, $F=spr, $ttl=1000, $D=lcd, $R=lru"
attr iterationvars2 "$net=abilene, $rep=0, $a=0.7, $F=spr, $ttl=1000, $D=lcd, $R=lru, $repetition=0"
attr measurement "$net=abilene, $rep=0, $a=0.7, $F=spr, $ttl=1000, $D=lcd, $R=lru"
attr net abilene
attr network networks.${net=abilene}_network
attr processid 28962
attr rep 0
attr repetition 0
attr replication #0
attr resultdir results
attr runnumber 9
attr seedset 0
attr ttl 1000

vector 0  abilene_network.node[0].content_store  hit_node[0]  ETV
0	1276971	1	1
0	1276971	2	1
0	1276971	3	1
0	1276971	4	1
0	1276971	5	1
0	1276971	6	1
0	1276971	7	1
0	1276971	8	1
0	1276971	9	1
0	1276971	10	1
0	1276971	11	1
0	1276971	12	1
0	1276971	13	1
0	1276971	14	1
0	1276971	15	1
0	1276971	16	1
0	1276971	17	0.66666666666667
0	1276971	18	1
0	1276971	19	1
0	1276971	20	1
0	1276971	21	1
0	1276971	22	1
0	1276971	23	1
0	1276971	24	0.5
0	1276971	25	1
0	1276971	26	0.33333333333333
0	1276971	27	1
0	1276971	28	1
0	1276971	29	1
0	1276971	30	1
0	1276971	31	1
0	1276971	32	1
0	1276971	33	1
0	1276971	34	1
0	1276971	35	1
0	1276971	36	1
0	1276971	37	0.6
0	1276971	38	1
0	1276971	39	1
0	1276971	40	0
0	1276971	41	0
0	1276971	42	1
0	1276971	43	0.5
0	1276971	44	1
0	1276971	45	1
0	1276971	46	1
0	1276971	47	0
0	1276971	48	-nan
0	1276971	49	1
0	1276971	50	1
0	1276971	51	1
0	1276971	52	-nan
0	1276971	53	1
0	1276971	54	0
0	1276971	55	1
0	1276971	56	0
0	1276971	57	0
0	1276971	58	0
0	1276971	59	1
0	1276971	60	1
0	1276971	61	1
0	1276971	62	0
0	1276971	63	0
0	1276971	64	1
0	1276971	65	0.5
0	1276971	66	0
0	1276971	67	0
0	1276971	68	1
0	1276971	69	0.5
0	1276971	70	0
0	1276971	71	0.5
0	1276971	72	0
0	1276971	73	0.5
0	1276971	74	0.8
0	1276971	75	0
0	1276971	76	-nan
0	1276971	77	-nan
0	1276971	78	1
0	1276971	79	0.5
0	1276971	80	0
0	1276971	81	1
0	1276971	82	1
0	1276971	83	0.5
0	1276971	84	0
0	1276971	85	0
0	1276971	86	0.75
0	1276971	87	1
0	1276971	88	0
0	1276971	89	-nan
0	1276971	90	0
0	1276971	91	-nan
0	1276971	92	0.5
0	1276971	93	0
0	1276971	94	0
0	1276971	95	0
0	1276971	96	-nan
0	1276971	97	-nan
0	1276971	98	1
0	1276971	99	0
0	1276971	100	0.5
0	1276971	101	0.8
0	1276971	102	1
0	1276971	103	0.8
0	1276971	104	1
0	1276971	105	0
0	1276971	106	1
0	1276971	107	1
0	1276971	108	-nan
0	1276971	109	-nan
0	1276971	110	-nan
0	1276971	111	1
0	1276971	112	0.33333333333333
0	1276971	113	-nan
0	1276971	114	0
0	1276971	115	0.5
0	1276971	116	0
0	1276971	117	0
0	1276971	118	0
0	1276971	119	-nan
0	1276971	120	0
0	1276971	121	0
0	1276971	122	0
0	1276971	123	0.5
0	1276971	124	0
0	1276971	125	-nan
0	1276971	126	-nan
0	1276971	127	0
0	1276971	128	0
0	1276971	129	0
0	1276971	130	0
0	1276971	131	0
0	1276971	132	0
0	1276971	133	0
0	1276971	134	1
0	1276971	135	-nan
0	1276971	136	-nan
0	1276971	137	0
0	1276971	138	-nan
0	1276971	139	0
0	1276971	140	0
0	1276971	141	0
0	1276971	142	1
0	1276971	143	-nan
0	1276971	144	0
0	1276971	145	-nan
0	1276971	146	0
0	1276971	147	-nan
0	1276971	148	-nan
0	1276971	149	0
0	1276971	150	0
0	1276971	151	0
0	1276971	152	0
0	1276971	153	0
0	1276971	154	0
0	1276971	155	0
0	1276971	156	-nan
0	1276971	157	0
0	1276971	158	0
0	1276971	159	0
0	1276971	160	-nan
0	1276971	161	-nan
0	1276971	162	0
0	1276971	163	1
0	1276971	164	0
0	1276971	165	0
0	1276971	166	0
0	1276971	167	0
0	1276971	168	0.5
0	1276971	169	-nan
0	1276971	170	0
0	1276971	171	0
0	1276971	172	0
0	1276971	173	1
0	1276971	174	-nan
0	1276971	175	-nan
0	1276971	176	0
0	1276971	177	1
0	1276971	178	0
0	1276971	179	-nan
0	1276971	180	0
0	1276971	181	0
0	1276971	182	0
0	1276971	183	0
0	1276971	184	-nan
0	1276971	185	-nan
0	1276971	186	-nan
0	1276971	187	0
0	1276971	188	-nan
0	1276971	189	0
0	1276971	190	0
0	1276971	191	-nan
0	1276971	192	0
0	1276971	193	-nan
0	1276971	194	0
0	1276971	195	-nan
0	1276971	196	0
0	1276971	197	-nan
0	1276971	198	0
0	1276971	199	-nan
0	1276971	200	-nan
0	1276971	201	0
0	1276971	202	0
0	1276971	203	-nan
0	1276971	204	0
0	1276971	205	0
0	1276971	206	-nan
0	1276971	207	-nan
0	1276971	208	0
0	1276971	209	0
0	1276971	210	0
0	1276971	211	0.5
0	1276971	212	0
0	1276971	213	0
0	1276971	214	-nan
0	1276971	215	0
0	1276971	216	0
0	1276971	217	-nan
0	1276971	218	0
0	1276971	219	-nan
0	1276971	220	0
0	1276971	221	0
0	1276971	222	-nan
0	1276971	223	0
0	1276971	224	0
0	1276971	225	0
0	1276971	226	-nan
0	1276971	227	0
0	1276971	228	-nan
0	1276971	229	0
0	1276971	230	0
0	1276971	231	0
0	1276971	232	-nan
0	1276971	233	0
0	1276971	234	-nan
0	1276971	235	0
0	1276971	236	0
0	1276971	237	0
0	1276971	238	-nan
0	1276971	239	-nan
0	1276971	240	-nan
0	1276971	241	0
0	1276971	242	0
0	1276971	243	0
0	1276971	244	-nan
0	1276971	245	-nan
0	1276971	246	-nan
0	1276971	247	-nan
0	1276971	248	0
0	1276971	249	-nan
0	1276971	250	0
0	1276971	251	-nan
0	1276971	252	0
0	1276971	253	-nan
0	1276971	254	0
0	1276971	255	-nan
0	1276971	256	-nan
0	1276971	257	0
0	1276971	258	0
0	1276971	259	0.5
0	1276971	260	-nan
0	1276971	261	-nan
0	1276971	262	0
0	1276971	263	-nan
0	1276971	264	0
0	1276971	265	-nan
0	1276971	266	-nan
0	1276971	267	0
0	1276971	268	-nan
0	1276971	269	-nan
0	1276971	270	0
0	1276971	271	-nan
0	1276971	272	-nan
0	1276971	273	-nan
0	1276971	274	-nan
0	1276971	275	-nan
0	1276971	276	-nan
0	1276971	277	0
0	1276971	278	-nan
0	1276971	279	0
0	1276971	280	0
0	1276971	281	-nan
0	1276971	282	-nan
0	1276971	283	0
0	1276971	284	-nan
0	1276971	285	-nan
0	1276971	286	-nan
0	1276971	287	-nan
0	1276971	288	-nan
0	1276971	289	0
0	1276971	290	-nan
0	1276971	291	-nan
0	1276971	292	0
0	1276971	293	-nan
0	1276971	294	0
0	1276971	295	0
0	1276971	296	-nan
0	1276971	297	0
0	1276971	298	-nan
0	1276971	299	-nan
0	1276971	300	0
0	1276971	301	-nan
0	1276971	302	0
0	1276971	303	0
0	1276971	304	0
0	1276971	305	0
0	1276971	306	0
0	1276971	307	0
0	1276971	308	0
0	1276971	309	0
0	1276971	310	0
0	1276971	311	-nan
0	1276971	312	-nan
0	1276971	313	-nan
0	1276971	314	0
0	1276971	315	0
0	1276971	316	-nan
0	1276971	317	0
0	1276971	318	0
0	1276971	319	1
0	1276971	320	0
0	1276971	321	-nan
0	1276971	322	0
0	1276971	323	-nan
0	1276971	324	0
0	1276971	325	0
0	1276971	326	0
0	1276971	327	0
0	1276971	328	-nan
0	1276971	329	0
0	1276971	330	0
0	1276971	331	0
0	1276971	332	0
0	1276971	333	-nan
0	1276971	334	-nan
0	1276971	335	0
0	1276971	336	0
0	1276971	337	-nan
0	1276971	338	0
0	1276971	339	-nan
0	1276971	340	-nan
0	1276971	341	0
0	1276971	342	0
0	1276971	343	-nan
0	1276971	344	-nan
0	1276971	345	-nan
0	1276971	346	-nan
0	1276971	347	-nan
0	1276971	348	0
0	1276971	349	0
0	1276971	350	-nan
0	1276971	351	-nan
0	1276971	352	-nan
0	1276971	353	-nan
0	1276971	354	0
0	1276971	355	0
0	1276971	356	0
0	1276971	357	-nan
0	1276971	358	-nan
0	1276971	359	-nan
0	1276971	360	0
0	1276971	361	0
0	1276971	362	0
0	1276971	363	-nan
0	1276971	364	-nan
0	1276971	365	0
0	1276971	366	-nan
0	1276971	367	0
0	1276971	368	-nan
0	1276971	369	-nan
0	1276971	370	-nan
0	1276971	371	0
0	1276971	372	0
0	1276971	373	-nan
0	1276971	374	0
0	1276971	375	0
0	1276971	376	-nan
0	1276971	377	-nan
0	1276971	378	-nan
0	1276971	379	0
0	1276971	380	-nan
0	1276971	381	-nan
0	1276971	382	0
0	1276971	383	0
0	1276971	384	-nan
0	1276971	385	0
0	1276971	386	0
0	1276971	387	-nan
0	1276971	388	0
0	1276971	389	-nan
0	1276971	390	0
0	1276971	391	-nan
0	1276971	392	0
0	1276971	393	-nan
0	1276971	394	0
0	1276971	395	-nan
0	1276971	396	1
0	1276971	397	-nan
0	1276971	398	-nan
0	1276971	399	-nan
0	1276971	400	-nan
0	1276971	401	-nan
0	1276971	402	-nan
0	1276971	403	-nan
0	1276971	404	-nan
0	1276971	405	0
0	1276971	406	0
0	1276971	407	0
0	1276971	408	0
0	1276971	409	-nan
0	1276971	410	0
0	1276971	411	-nan
0	1276971	412	-nan
0	1276971	413	-nan
0	1276971	414	-nan
0	1276971	415	0
0	1276971	416	-nan
0	1276971	417	0
0	1276971	418	0
0	1276971	419	0
0	1276971	420	-nan
0	1276971	421	0
0	1276971	422	-nan
0	1276971	423	-nan
0	1276971	424	-nan
0	1276971	425	-nan
0	1276971	426	0
0	1276971	427	-nan
0	1276971	428	-nan
0	1276971	429	-nan
0	1276971	430	0
0	1276971	431	-nan
0	1276971	432	0
0	1276971	433	-nan
0	1276971	434	0
0	1276971	435	-nan
0	1276971	436	-nan
0	1276971	437	0.33333333333333
0	1276971	438	0
0	1276971	439	0
0	1276971	440	0
0	1276971	441	-nan
0	1276971	442	-nan
0	1276971	443	0
0	1276971	444	-nan
0	1276971	445	0
0	1276971	446	0
0	1276971	447	0
0	1276971	448	0
0	1276971	449	-nan
0	1276971	450	-nan
0	1276971	451	0
0	1276971	452	-nan
0	1276971	453	0
0	1276971	454	-nan
0	1276971	455	0
0	1276971	456	-nan
0	1276971	457	0
0	1276971	458	0
0	1276971	459	-nan
0	1276971	460	-nan
0	1276971	461	-nan
0	1276971	462	-nan
0	1276971	463	0
0	1276971	464	-nan
0	1276971	465	0
0	1276971	466	-nan
0	1276971	467	-nan
0	1276971	468	0
0	1276971	469	-nan
0	1276971	470	0
0	1276971	471	0
0	1276971	472	-nan
0	1276971	473	-nan
0	1276971	474	0
0	1276971	475	-nan
0	1276971	476	-nan
0	1276971	477	0
0	1276971	478	-nan
0	1276971	479	0
0	1276971	480	-nan
0	1276971	481	-nan
0	1276971	482	-nan
0	1276971	483	0
0	1276971	484	0
0	1276971	485	-nan
0	1276971	486	0
0	1276971	487	-nan
0	1276971	488	-nan
0	1276971	489	0
0	1276971	490	-nan
0	1276971	491	0
0	1276971	492	0
0	1276971	493	-nan
0	1276971	494	0
0	1276971	495	-nan
0	1276971	496	-nan
0	1276971	497	0
0	1276971	498	0
0	1276971	499	-nan
0	1276971	500	-nan
0	1276971	501	-nan
0	1276971	502	-nan
0	1276971	503	0
0	1276971	504	-nan
0	1276971	505	0
0	1276971	506	-nan
0	1276971	507	-nan
0	1276971	508	-nan
0	1276971	509	-nan
0	1276971	510	-nan
0	1276971	511	0
0	1276971	512	-nan
0	1276971	513	-nan
0	1276971	514	-nan
0	1276971	515	-nan
0	1276971	516	-nan
0	1276971	517	-nan
0	1276971	518	0
0	1276971	519	-nan
0	1276971	520	-nan
0	1276971	521	0
0	1276971	522	0
0	1276971	523	0
0	1276971	524	-nan
0	1276971	525	0
0	1276971	526	-nan
0	1276971	527	-nan
0	1276971	528	0
0	1276971	529	0
0	1276971	530	-nan
0	1276971	531	-nan
0	1276971	532	-nan
0	1276971	533	-nan
0	1276971	534	0
0	1276971	535	-nan
0	1276971	536	-nan
0	1276971	537	-nan
0	1276971	538	0
0	1276971	539	-nan
0	1276971	540	0
0	1276971	541	0
0	1276971	542	-nan
0	1276971	543	-nan
0	1276971	544	-nan
0	1276971	545	-nan
0	1276971	546	-nan
0	1276971	547	0
0	1276971	548	-nan
0	1276971	549	-nan
0	1276971	550	-nan
0	1276971	551	0
0	1276971	552	-nan
0	1276971	553	-nan
0	1276971	554	-nan
0	1276971	555	0
0	1276971	556	-nan
0	1276971	557	0
0	1276971	558	-nan
0	1276971	559	0
0	1276971	560	-nan
0	1276971	561	-nan
0	1276971	562	0
0	1276971	563	-nan
0	1276971	564	-nan
0	1276971	565	-nan
0	1276971	566	-nan
0	1276971	567	-nan
0	1276971	568	-nan
0	1276971	569	-nan
0	1276971	570	-nan
0	1276971	571	0
0	1276971	572	-nan
0	1276971	573	-nan
0	1276971	574	-nan
0	1276971	575	-nan
0	1276971	576	0
0	1276971	577	-nan
0	1276971	578	0
0	1276971	579	-nan
0	1276971	580	-nan
0	1276971	581	-nan
0	1276971	582	-nan
0	1276971	583	-nan
0	1276971	584	0
0	1276971	585	-nan
0	1276971	586	-nan
0	1276971	587	-nan
0	1276971	588	-nan
0	1276971	589	-nan
0	1276971	590	0
0	1276971	591	-nan
0	1276971	592	-nan
0	1276971	593	0
0	1276971	594	0
0	1276971	595	-nan
0	1276971	596	-nan
0	1276971	597	-nan
0	1276971	598	-nan
0	1276971	599	-nan
0	1276971	600	0
0	1276971	601	-nan
0	1276971	602	-nan
0	1276971	603	-nan
0	1276971	604	-nan
0	1276971	605	-nan
0	1276971	606	-nan
0	1276971	607	-nan
0	1276971	608	-nan
0	1276971	609	-nan
0	1276971	610	-nan
0	1276971	611	0
0	1276971	612	-nan
0	1276971	613	-nan
0	1276971	614	-nan
0	1276971	615	-nan
0	1276971	616	0
0	1276971	617	0
0	1276971	618	-nan
0	1276971	619	-nan
0	1276971	620	-nan
0	1276971	621	-nan
0	1276971	622	0
0	1276971	623	-nan
0	1276971	624	0
0	1276971	625	-nan
0	1276971	626	-nan
0	1276971	627	0
0	1276971	628	0
0	1276971	629	-nan
0	1276971	630	0
0	1276971	631	0
0	1276971	632	0
0	1276971	633	-nan
0	1276971	634	-nan
0	1276971	635	-nan
0	1276971	636	-nan
0	1276971	637	0
0	1276971	638	0
0	1276971	639	-nan
0	1276971	640	0
0	1276971	641	-nan
0	1276971	642	-nan
0	1276971	643	-nan
0	1276971	644	-nan
0	1276971	645	-nan
0	1276971	646	-nan
0	1276971	647	-nan
0	1276971	648	0
0	1276971	649	-nan
0	1276971	650	-nan
0	1276971	651	-nan
0	1276971	652	-nan
0	1276971	653	0
0	1276971	654	-nan
0	1276971	655	0
0	1276971	656	0
0	1276971	657	0
0	1276971	658	0
0	1276971	659	-nan
0	1276971	660	0
0	1276971	661	0
0	1276971	662	-nan
0	1276971	663	-nan
0	1276971	664	-nan
0	1276971	665	0
0	1276971	666	-nan
0	1276971	667	-nan
0	1276971	668	-nan
0	1276971	669	-nan
0	1276971	670	-nan
0	1276971	671	-nan
0	1276971	672	-nan
0	1276971	673	-nan
0	1276971	674	0
0	1276971	675	-nan
0	1276971	676	0
0	1276971	677	-nan
0	1276971	678	-nan
0	1276971	679	-nan
0	1276971	680	-nan
0	1276971	681	-nan
0	1276971	682	-nan
0	1276971	683	-nan
0	1276971	684	-nan
0	1276971	685	-nan
0	1276971	686	-nan
0	1276971	687	-nan
0	1276971	688	-nan
0	1276971	689	0
0	1276971	690	-nan
0	1276971	691	0
0	1276971	692	0
0	1276971	693	0
0	1276971	694	-nan
0	1276971	695	0
0	1276971	696	0
0	1276971	697	-nan
0	1276971	698	-nan
0	1276971	699	0
0	1276971	700	-nan
0	1276971	701	0
0	1276971	702	-nan
0	1276971	703	-nan
0	1276971	704	-nan
0	1276971	705	-nan
0	1276971	706	-nan
0	1276971	707	-nan
0	1276971	708	0
0	1276971	709	-nan
0	1276971	710	0
0	1276971	711	-nan
0	1276971	712	0
0	1276971	713	-nan
0	1276971	714	-nan
0	1276971	715	0
0	1276971	716	-nan
0	1276971	717	0
0	1276971	718	-nan
0	1276971	719	0
0	1276971	720	0
0	1276971	721	-nan
0	1276971	722	0
0	1276971	723	0
0	1276971	724	-nan
0	1276971	725	-nan
0	1276971	726	0
0	1276971	727	-nan
0	1276971	728	-nan
0	1276971	729	-nan
0	1276971	730	-nan
0	1276971	731	-nan
0	1276971	732	-nan
0	1276971	733	-nan
0	1276971	734	-nan
0	1276971	735	-nan
0	1276971	736	-nan
0	1276971	737	0
0	1276971	738	-nan
0	1276971	739	-nan
0	1276971	740	-nan
0	1276971	741	0
0	1276971	742	-nan
0	1276971	743	-nan
0	1276971	744	-nan
0	1276971	745	-nan
0	1276971	746	0
0	1276971	747	0
0	1276971	748	-nan
0	1276971	749	-nan
0	1276971	750	-nan
0	1276971	751	-nan
0	1276971	752	-nan
0	1276971	753	0
0	1276971	754	-nan
0	1276971	755	-nan
0	1276971	756	-nan
0	1276971	757	0
0	1276971	758	-nan
0	1276971	759	-nan
0	1276971	760	0
0	1276971	761	0
0	1276971	762	-nan
0	1276971	763	-nan
0	1276971	764	0
0	1276971	765	-nan
0	1276971	766	-nan
0	1276971	767	-nan
0	1276971	768	0
0	1276971	769	-nan
0	1276971	770	-nan
0	1276971	771	0
0	1276971	772	-nan
0	1276971	773	-nan
0	1276971	774	-nan
0	1276971	775	0
0	1276971	776	0
0	1276971	777	-nan
0	1276971	778	-nan
0	1276971	779	0
0	1276971	780	0
0	1276971	781	0
0	1276971	782	-nan
0	1276971	783	0
0	1276971	784	-nan
0	1276971	785	-nan
0	1276971	786	-nan
0	1276971	787	0
0	1276971	788	0
0	1276971	789	-nan
0	1276971	790	0
0	1276971	791	-nan
0	1276971	792	-nan
0	1276971	793	-nan
0	1276971	794	-nan
0	1276971	795	-nan
0	1276971	796	0
0	1276971	797	-nan
0	1276971	798	-nan
0	1276971	799	0
0	1276971	800	-nan
0	1276971	801	-nan
0	1276971	802	-nan
0	1276971	803	-nan
0	1276971	804	-nan
0	1276971	805	0
0	1276971	806	-nan
0	1276971	807	-nan
0	1276971	808	-nan
0	1276971	809	-nan
0	1276971	810	-nan
0	1276971	811	-nan
0	1276971	812	-nan
0	1276971	813	-nan
0	1276971	814	-nan
0	1276971	815	-nan
0	1276971	816	0
0	1276971	817	-nan
0	1276971	818	-nan
0	1276971	819	0
0	1276971	820	0
0	1276971	821	-nan
0	1276971	822	0
0	1276971	823	-nan
0	1276971	824	-nan
0	1276971	825	-nan
0	1276971	826	-nan
0	1276971	827	-nan
0	1276971	828	0
0	1276971	829	-nan
0	1276971	830	-nan
0	1276971	831	-nan
0	1276971	832	-nan
0	1276971	833	0
0	1276971	834	-nan
0	1276971	835	-nan
0	1276971	836	-nan
0	1276971	837	-nan
0	1276971	838	-nan
0	1276971	839	-nan
0	1276971	840	-nan
0	1276971	841	-nan
0	1276971	842	-nan
0	1276971	843	0
0	1276971	844	-nan
0	1276971	845	-nan
0	1276971	846	-nan
0	1276971	847	0
0	1276971	848	-nan
0	1276971	849	-nan
0	1276971	850	-nan
0	1276971	851	-nan
0	1276971	852	-nan
0	1276971	853	-nan
0	1276971	854	-nan
0	1276971	855	-nan
0	1276971	856	-nan
0	1276971	857	-nan
0	1276971	858	-nan
0	1276971	859	-nan
0	1276971	860	0
0	1276971	861	-nan
0	1276971	862	-nan
0	1276971	863	0
0	1276971	864	-nan
0	1276971	865	-nan
0	1276971	866	-nan
0	1276971	867	0
0	1276971	868	0
0	1276971	869	0
0	1276971	870	0
0	1276971	871	-nan
0	1276971	872	0
0	1276971	873	-nan
0	1276971	874	-nan
0	1276971	875	-nan
0	1276971	876	-nan
0	1276971	877	-nan
0	1276971	878	0
0	1276971	879	-nan
0	1276971	880	-nan
0	1276971	881	-nan
0	1276971	882	0
0	1276971	883	0
0	1276971	884	-nan
0	1276971	885	-nan
0	1276971	886	-nan
0	1276971	887	0
0	1276971	888	-nan
0	1276971	889	-nan
0	1276971	890	-nan
0	1276971	891	-nan
0	1276971	892	-nan
0	1276971	893	0
0	1276971	894	-nan
0	1276971	895	-nan
0	1276971	896	0
0	1276971	897	-nan
0	1276971	898	-nan
0	1276971	899	-nan
0	1276971	900	-nan
0	1276971	901	0
0	1276971	902	0
0	1276971	903	-nan
0	1276971	904	-nan
0	1276971	905	0
0	1276971	906	-nan
0	1276971	907	-nan
0	1276971	908	-nan
0	1276971	909	-nan
0	1276971	910	-nan
0	1276971	911	-nan
0	1276971	912	-nan
0	1276971	913	-nan
0	1276971	914	-nan
0	1276971	915	-nan
0	1276971	916	-nan
0	1276971	917	-nan
0	1276971	918	-nan
0	1276971	919	-nan
0	1276971	920	0
0	1276971	921	0
0	1276971	922	-nan
0	1276971	923	-nan
0	1276971	924	0
0	1276971	925	-nan
0	1276971	926	-nan
0	1276971	927	-nan
0	1276971	928	-nan
0	1276971	929	-nan
0	1276971	930	0
0	1276971	931	0
0	1276971	932	-nan
0	1276971	933	-nan
0	1276971	934	-nan
0	1276971	935	-nan
0	1276971	936	0
0	1276971	937	0
0	1276971	938	-nan
0	1276971	939	-nan
0	1276971	940	1
0	1276971	941	-nan
0	1276971	942	-nan
0	1276971	943	-nan
0	1276971	944	-nan
0	1276971	945	-nan
0	1276971	946	-nan
0	1276971	947	-nan
0	1276971	948	-nan
0	1276971	949	-nan
0	1276971	950	-nan
0	1276971	951	-nan
0	1276971	952	-nan
0	1276971	953	-nan
0	1276971	954	-nan
0	1276971	955	-nan
0	1276971	956	-nan
0	1276971	957	-nan
0	1276971	958	0
0	1276971	959	-nan
0	1276971	960	0
0	1276971	961	-nan
0	1276971	962	0
0	1276971	963	-nan
0	1276971	964	-nan
0	1276971	965	-nan
0	1276971	966	-nan
0	1276971	967	-nan
0	1276971	968	-nan
0	1276971	969	-nan
0	1276971	970	-nan
0	1276971	971	-nan
0	1276971	972	-nan
0	1276971	973	-nan
0	1276971	974	-nan
0	1276971	975	-nan
0	1276971	976	0
0	1276971	977	-nan
0	1276971	978	-nan
0	1276971	979	-nan
0	1276971	980	-nan
0	1276971	981	-nan
0	1276971	982	-nan
0	1276971	983	-nan
0	1276971	984	-nan
0	1276971	985	0
0	1276971	986	-nan
0	1276971	987	-nan
0	1276971	988	-nan
0	1276971	989	-nan
0	1276971	990	-nan
0	1276971	991	-nan
0	1276971	992	-nan
0	1276971	993	-nan
0	1276971	994	-nan
0	1276971	995	-nan
0	1276971	996	0
0	1276971	997	0
0	1276971	998	-nan
0	1276971	999	-nan
0	1276971	1000	-nan
0	1276971	1001	0
0	1276971	1002	-nan
0	1276971	1003	-nan
0	1276971	1004	-nan
0	1276971	1005	-nan
0	1276971	1006	-nan
0	1276971	1007	-nan
0	1276971	1008	0
0	1276971	1009	-nan
0	1276971	1010	-nan
0	1276971	1011	0
0	1276971	1012	-nan
0	1276971	1013	-nan
0	1276971	1014	0
0	1276971	1015	-nan
0	1276971	1016	-nan
0	1276971	1017	-nan
0	1276971	1018	-nan
0	1276971	1019	-nan
0	1276971	1020	0
0	1276971	1021	-nan
0	1276971	1022	0
0	1276971	1023	0
0	1276971	1024	-nan
0	1276971	1025	-nan
0	1276971	1026	0
0	1276971	1027	0
0	1276971	1028	-nan
0	1276971	1029	0
0	1276971	1030	-nan
0	1276971	1031	-nan
0	1276971	1032	-nan
0	1276971	1033	-nan
0	1276971	1034	0
0	1276971	1035	-nan
0	1276971	1036	-nan
0	1276971	1037	0
0	1276971	1038	-nan
0	1276971	1039	-nan
0	1276971	1040	-nan
0	1276971	1041	-nan
0	1276971	1042	0
0	1276971	1043	-nan
0	1276971	1044	-nan
0	1276971	1045	0
0	1276971	1046	0
0	1276971	1047	-nan
0	1276971	1048	-nan
0	1276971	1049	-nan
0	1276971	1050	-nan
0	1276971	1051	-nan
0	1276971	1052	0
0	1276971	1053	-nan
0	1276971	1054	-nan
0	1276971	1055	-nan
0	1276971	1056	-nan
0	1276971	1057	0
0	1276971	1058	-nan
0	1276971	1059	-nan
0	1276971	1060	-nan
0	1276971	1061	-nan
0	1276971	1062	-nan
0	1276971	1063	-nan
0	1276971	1064	-nan
0	1276971	1065	-nan
0	1276971	1066	-nan
0	1276971	1067	-nan
0	1276971	1068	-nan
0	1276971	1069	0
0	1276971	1070	-nan
0	1276971	1071	-nan
0	1276971	1072	-nan
0	1276971	1073	0
0	1276971	1074	0
0	1276971	1075	-nan
0	1276971	1076	0
0	1276971	1077	-nan
0	1276971	1078	-nan
0	1276971	1079	-nan
0	1276971	1080	0
0	1276971	1081	-nan
0	1276971	1082	-nan
0	1276971	1083	0
0	1276971	1084	-nan
0	1276971	1085	-nan
0	1276971	1086	0
0	1276971	1087	-nan
0	1276971	1088	-nan
0	1276971	1089	-nan
0	1276971	1090	-nan
0	1276971	1091	0
0	1276971	1092	-nan
0	1276971	1093	-nan
0	1276971	1094	0
0	1276971	1095	-nan
0	1276971	1096	-nan
0	1276971	1097	-nan
0	1276971	1098	0
0	1276971	1099	-nan
0	1276971	1100	-nan
0	1276971	1101	-nan
0	1276971	1102	-nan
0	1276971	1103	0
0	1276971	1104	-nan
0	1276971	1105	-nan
0	1276971	1106	0
0	1276971	1107	-nan
0	1276971	1108	0
0	1276971	1109	-nan
0	1276971	1110	-nan
0	1276971	1111	0
0	1276971	1112	-nan
0	1276971	1113	-nan
0	1276971	1114	0
0	1276971	1115	-nan
0	1276971	1116	-nan
0	1276971	1117	-nan
0	1276971	1118	-nan
0	1276971	1119	-nan
0	1276971	1120	-nan
0	1276971	1121	-nan
0	1276971	1122	0
0	1276971	1123	0
0	1276971	1124	-nan
0	1276971	1125	0
0	1276971	1126	-nan
0	1276971	1127	-nan
0	1276971	1128	-nan
0	1276971	1129	-nan
0	1276971	1130	-nan
0	1276971	1131	0
0	1276971	1132	0
0	1276971	1133	0
0	1276971	1134	-nan
0	1276971	1135	-nan
0	1276971	1136	-nan
0	1276971	1137	-nan
0	1276971	1138	0
0	1276971	1139	-nan
0	1276971	1140	-nan
0	1276971	1141	-nan
0	1276971	1142	-nan
0	1276971	1143	-nan
0	1276971	1144	-nan
0	1276971	1145	-nan
0	1276971	1146	-nan
0	1276971	1147	-nan
0	1276971	1148	-nan
0	1276971	1149	-nan
0	1276971	1150	-nan
0	1276971	1151	-nan
0	1276971	1152	-nan
0	1276971	1153	-nan
0	1276971	1154	0
0	1276971	1155	-nan
0	1276971	1156	-nan
0	1276971	1157	0
0	1276971	1158	0
0	1276971	1159	-nan
0	1276971	1160	-nan
0	1276971	1161	0
0	1276971	1162	-nan
0	1276971	1163	-nan
0	1276971	1164	-nan
0	1276971	1165	-nan
0	1276971	1166	0
0	1276971	1167	-nan
0	1276971	1168	0
0	1276971	1169	0
0	1276971	1170	-nan
0	1276971	1171	-nan
0	1276971	1172	-nan
0	1276971	1173	-nan
0	1276971	1174	-nan
0	1276971	1175	0
0	1276971	1176	0
0	1276971	1177	-nan
0	1276971	1178	-nan
vector 1  abilene_network.node[1].content_store  hit_node[1]  ETV
1	1276971	1	1
1	1276971	2	1
1	1276971	3	1
1	1276971	4	1
1	1276971	5	1
1	1276971	6	1
1	1276971	7	1
1	1276971	8	1
1	1276971	9	1
1	1276971	10	1
1	1276971	11	0.88888888888889
1	1276971	12	1
1	1276971	13	1
1	1276971	14	1
1	1276971	15	1
1	1276971	16	1
1	1276971	17	1
1	1276971	18	1
1	1276971	19	1
1	1276971	20	1
1	1276971	21	1
1	1276971	22	0.66666666666667
1	1276971	23	1
1	1276971	24	1
1	1276971	25	0.8
1	1276971	26	0.5
1	1276971	27	1
1	1276971	28	0
1	1276971	29	1
1	1276971	30	0.75
1	1276971	31	1
1	1276971	32	0.75
1	1276971	33	0.25
1	1276971	34	0.5
1	1276971	35	1
1	1276971	36	0.66666666666667
1	1276971	37	0.85714285714286
1	1276971	38	0
1	1276971	39	1
1	1276971	40	1
1	1276971	41	0.75
1	1276971	42	0
1	1276971	43	0.75
1	1276971	44	0.5
1	1276971	45	-nan
1	1276971	46	0
1	1276971	47	0
1	1276971	48	0
1	1276971	49	0.66666666666667
1	1276971	50	1
1	1276971	51	0.66666666666667
1	1276971	52	1
1	1276971	53	0
1	1276971	54	0.2
1	1276971	55	1
1	1276971	56	0
1	1276971	57	0
1	1276971	58	0.25
1	1276971	59	0
1	1276971	60	0.4
1	1276971	61	0.71428571428571
1	1276971	62	0
1	1276971	63	0
1	1276971	64	0
1	1276971	65	1
1	1276971	66	0
1	1276971	67	0.75
1	1276971	68	0
1	1276971	69	1
1	1276971	70	1
1	1276971	71	1
1	1276971	72	0
1	1276971	73	0.66666666666667
1	1276971	74	1
1	1276971	75	0.33333333333333
1	1276971	76	0
1	1276971	77	0
1	1276971	78	1
1	1276971	79	0.5
1	1276971	80	0
1	1276971	81	0
1	1276971	82	1
1	1276971	83	0.66666666666667
1	1276971	84	0
1	1276971	85	1
1	1276971	86	1
1	1276971	87	0
1	1276971	88	0.5
1	1276971	89	0
1	1276971	90	0
1	1276971	91	0
1	1276971	92	0.55555555555556
1	1276971	93	0.33333333333333
1	1276971	94	0
1	1276971	95	0
1	1276971	96	0
1	1276971	97	0.5
1	1276971	98	1
1	1276971	99	0
1	1276971	100	0.75
1	1276971	101	0.66666666666667
1	1276971	102	-nan
1	1276971	103	1
1	1276971	104	0
1	1276971	105	0
1	1276971	106	0
1	1276971	107	1
1	1276971	108	-nan
1	1276971	109	-nan
1	1276971	110	-nan
1	1276971	111	-nan
1	1276971	112	0.4
1	1276971	113	0.66666666666667
1	1276971	114	0
1	1276971	115	0.5
1	1276971	116	0
1	1276971	117	0
1	1276971	118	0
1	1276971	119	0
1	1276971	120	0.4
1	1276971	121	1
1	1276971	122	1
1	1276971	123	0.42857142857143
1	1276971	124	0
1	1276971	125	0
1	1276971	126	0
1	1276971	127	0
1	1276971	128	0
1	1276971	129	0.25
1	1276971	130	1
1	1276971	131	0.75
1	1276971	132	0
1	1276971	133	0
1	1276971	134	0
1	1276971	135	0
1	1276971	136	0
1	1276971	137	0
1	1276971	138	1
1	1276971	139	0.16666666666667
1	1276971	140	0.5
1	1276971	141	0
1	1276971	142	0
1	1276971	143	0
1	1276971	144	0
1	1276971	145	0
1	1276971	146	0
1	1276971	147	0
1	1276971	148	0
1	1276971	149	0
1	1276971	150	0
1	1276971	151	0
1	1276971	152	0
1	1276971	153	0
1	1276971	154	0.75
1	1276971	155	0.6
1	1276971	156	0
1	1276971	157	0.5
1	1276971	158	0
1	1276971	159	0
1	1276971	160	0
1	1276971	161	0
1	1276971	162	0
1	1276971	163	0
1	1276971	164	0
1	1276971	165	1
1	1276971	166	0
1	1276971	167	0
1	1276971	168	0.8
1	1276971	169	0
1	1276971	170	0
1	1276971	171	0
1	1276971	172	0
1	1276971	173	0
1	1276971	174	-nan
1	1276971	175	0
1	1276971	176	0
1	1276971	177	0
1	1276971	178	0
1	1276971	179	1
1	1276971	180	0
1	1276971	181	0.8
1	1276971	182	0
1	1276971	183	0
1	1276971	184	0
1	1276971	185	-nan
1	1276971	186	0
1	1276971	187	0
1	1276971	188	0
1	1276971	189	0.25
1	1276971	190	0
1	1276971	191	0
1	1276971	192	0
1	1276971	193	0
1	1276971	194	0
1	1276971	195	0
1	1276971	196	0
1	1276971	197	-nan
1	1276971	198	0
1	1276971	199	0
1	1276971	200	-nan
1	1276971	201	0
1	1276971	202	0
1	1276971	203	0
1	1276971	204	0
1	1276971	205	0
1	1276971	206	0
1	1276971	207	-nan
1	1276971	208	0
1	1276971	209	0
1	1276971	210	0
1	1276971	211	0.5
1	1276971	212	0
1	1276971	213	0
1	1276971	214	0
1	1276971	215	0
1	1276971	216	0
1	1276971	217	0
1	1276971	218	0
1	1276971	219	0.66666666666667
1	1276971	220	0
1	1276971	221	0
1	1276971	222	0
1	1276971	223	0
1	1276971	224	0
1	1276971	225	0
1	1276971	226	-nan
1	1276971	227	0.5
1	1276971	228	0
1	1276971	229	0
1	1276971	230	0
1	1276971	231	0.4
1	1276971	232	0
1	1276971	233	0
1	1276971	234	0
1	1276971	235	0
1	1276971	236	0
1	1276971	237	0
1	1276971	238	0
1	1276971	239	0
1	1276971	240	-nan
1	1276971	241	0
1	1276971	242	0
1	1276971	243	0
1	1276971	244	0
1	1276971	245	0
1	1276971	246	1
1	1276971	247	0
1	1276971	248	0
1	1276971	249	-nan
1	1276971	250	0
1	1276971	251	-nan
1	1276971	252	0
1	1276971	253	0
1	1276971	254	0
1	1276971	255	-nan
1	1276971	256	-nan
1	1276971	257	0
1	1276971	258	0
1	1276971	259	0.5
1	1276971	260	-nan
1	1276971	261	0
1	1276971	262	0
1	1276971	263	0
1	1276971	264	0.75
1	1276971	265	-nan
1	1276971	266	-nan
1	1276971	267	0
1	1276971	268	0.33333333333333
1	1276971	269	0
1	1276971	270	0
1	1276971	271	0
1	1276971	272	0
1	1276971	273	-nan
1	1276971	274	0
1	1276971	275	0
1	1276971	276	0
1	1276971	277	0
1	1276971	278	0
1	1276971	279	0
1	1276971	280	0
1	1276971	281	-nan
1	1276971	282	-nan
1	1276971	283	0
1	1276971	284	0
1	1276971	285	0
1	1276971	286	0
1	1276971	287	-nan
1	1276971	288	-nan
1	1276971	289	0
1	1276971	290	-nan
1	1276971	291	0
1	1276971	292	0
1	1276971	293	0
1	1276971	294	0
1	1276971	295	0
1	1276971	296	0
1	1276971	297	0
1	1276971	298	0
1	1276971	299	0
1	1276971	300	0
1	1276971	301	0
1	1276971	302	0
1	1276971	303	0
1	1276971	304	0
1	1276971	305	0
1	1276971	306	0
1	1276971	307	0.2
1	1276971	308	0
1	1276971	309	0
1	1276971	310	0
1	1276971	311	0
1	1276971	312	-nan
1	1276971	313	-nan
1	1276971	314	0
1	1276971	315	0
1	1276971	316	0
1	1276971	317	0
1	1276971	318	0
1	1276971	319	0
1	1276971	320	0
1	1276971	321	-nan
1	1276971	322	0
1	1276971	323	0
1	1276971	324	0
1	1276971	325	0
1	1276971	326	0
1	1276971	327	0
1	1276971	328	-nan
1	1276971	329	0
1	1276971	330	0
1	1276971	331	0
1	1276971	332	0
1	1276971	333	-nan
1	1276971	334	0
1	1276971	335	0
1	1276971	336	0
1	1276971	337	0
1	1276971	338	0
1	1276971	339	0
1	1276971	340	0
1	1276971	341	0
1	1276971	342	1
1	1276971	343	0
1	1276971	344	0
1	1276971	345	0
1	1276971	346	-nan
1	1276971	347	0
1	1276971	348	0
1	1276971	349	0
1	1276971	350	-nan
1	1276971	351	0
1	1276971	352	0
1	1276971	353	0
1	1276971	354	0
1	1276971	355	0
1	1276971	356	0
1	1276971	357	0
1	1276971	358	-nan
1	1276971	359	0
1	1276971	360	0
1	1276971	361	0
1	1276971	362	0
1	1276971	363	0
1	1276971	364	0
1	1276971	365	0
1	1276971	366	-nan
1	1276971	367	0
1	1276971	368	0
1	1276971	369	0
1	1276971	370	0
1	1276971	371	0
1	1276971	372	0
1	1276971	373	-nan
1	1276971	374	0
1	1276971	375	0
1	1276971	376	0
1	1276971	377	-nan
1	1276971	378	0
1	1276971	379	0
1	1276971	380	0
1	1276971	381	0
1	1276971	382	0
1	1276971	383	0
1	1276971	384	-nan
1	1276971	385	0
1	1276971	386	0
1	1276971	387	0
1	1276971	388	0
1	1276971	389	0
1	1276971	390	0
1	1276971	391	-nan
1	1276971	392	0
1	1276971	393	0
1	1276971	394	0
1	1276971	395	-nan
1	1276971	396	0
1	1276971	397	0
1	1276971	398	0
1	1276971	399	-nan
1	1276971	400	0
1	1276971	401	0
1	1276971	402	-nan
1	1276971	403	0
1	1276971	404	0
1	1276971	405	0
1	1276971	406	0
1	1276971	407	0
1	1276971	408	0
1	1276971	409	-nan
1	1276971	410	0
1	1276971	411	0
1	1276971	412	0
1	1276971	413	-nan
1	1276971	414	-nan
1	1276971	415	0
1	1276971	416	0
1	1276971	417	0
1	1276971	418	0
1	1276971	419	0
1	1276971	420	-nan
1	1276971	421	0
1	1276971	422	0
1	1276971	423	0
1	1276971	424	0
1	1276971	425	0
1	1276971	426	0
1	1276971	427	0
1	1276971	428	0
1	1276971	429	-nan
1	1276971	430	0
1	1276971	431	0
1	1276971	432	0
1	1276971	433	0
1	1276971	434	0
1	1276971	435	0
1	1276971	436	0
1	1276971	437	0.5
1	1276971	438	0
1	1276971	439	0
1	1276971	440	0
1	1276971	441	-nan
1	1276971	442	0
1	1276971	443	0
1	1276971	444	0
1	1276971	445	0
1	1276971	446	0
1	1276971	447	0
1	1276971	448	0
1	1276971	449	0
1	1276971	450	0
1	1276971	451	0
1	1276971	452	-nan
1	1276971	453	0
1	1276971	454	0
1	1276971	455	0
1	1276971	456	-nan
1	1276971	457	0
1	1276971	458	0
1	1276971	459	0
1	1276971	460	0
1	1276971	461	-nan
1	1276971	462	0
1	1276971	463	0
1	1276971	464	0
1	1276971	465	0
1	1276971	466	-nan
1	1276971	467	-nan
1	1276971	468	0
1	1276971	469	-nan
1	1276971	470	0
1	1276971	471	0
1	1276971	472	0
1	1276971	473	0
1	1276971	474	0
1	1276971	475	0
1	1276971	476	0
1	1276971	477	0
1	1276971	478	-nan
1	1276971	479	0
1	1276971	480	0
1	1276971	481	0