version 2
run General-5-20150612-17:43:11-32356
attr D never
attr F spr
attr R lru
attr a 1
attr configname General
attr datetime 20150612-17:43:11
attr experiment General
attr inifile omnetpp.ini
attr iterationvars "$net=abilene, $rep=0, $a=1, $F=spr, $ttl=1000, $D=never, $R=lru, $window=60, $variance=0.05, $mytime=1800"
attr iterationvars2 "$net=abilene, $rep=0, $a=1, $F=spr, $ttl=1000, $D=never, $R=lru, $window=60, $variance=0.05, $mytime=1800, $repetition=0"
attr measurement "$net=abilene, $rep=0, $a=1, $F=spr, $ttl=1000, $D=never, $R=lru, $window=60, $variance=0.05, $mytime=1800"
attr mytime 1800
attr net abilene
attr network networks.${net=abilene}_network
attr processid 32356
attr rep 0
attr repetition 0
attr replication #0
attr resultdir results
attr runnumber 5
attr seedset 0
attr ttl 1000
attr variance 0.05
attr window 60

vector 0  abilene_network.node[0].content_store  hit_node[0]  ETV
0	16696469	1	0
0	16696469	2	0
0	16696469	3	0
0	16696469	4	0
0	16696469	5	0
0	16696469	6	0
0	16696469	7	0
0	16696469	8	0
0	16696469	9	0
0	16696469	10	0
0	16696469	11	0
0	16696469	12	0
0	16696469	13	0
0	16696469	14	0
0	16696469	15	0
0	16696469	16	0
0	16696469	17	0
0	16696469	18	0
0	16696469	19	0
0	16696469	20	0
0	16696469	21	0
0	16696469	22	0
0	16696469	23	0
0	16696469	24	0
0	16696469	25	0
0	16696469	26	0
0	16696469	27	0
0	16696469	28	0
0	16696469	29	0
0	16696469	30	0
0	16696469	31	0
0	16696469	32	0
0	16696469	33	0
0	16696469	34	0
0	16696469	35	0
0	16696469	36	0
0	16696469	37	0
0	16696469	38	0
0	16696469	39	0
0	16696469	40	0
0	16696469	41	0
0	16696469	42	0
0	16696469	43	0
0	16696469	44	0
0	16696469	45	0
0	16696469	46	0
0	16696469	47	0
0	16696469	48	0
0	16696469	49	0
0	16696469	50	0
0	16696469	51	0
0	16696469	52	0
0	16696469	53	0
0	16696469	54	0
0	16696469	55	0
0	16696469	56	0
0	16696469	57	0
0	16696469	58	0
0	16696469	59	0
0	16696469	60	0
0	16696469	61	0
0	16696469	62	0
0	16696469	63	0
0	16696469	64	0
0	16696469	65	0
0	16696469	66	0
0	16696469	67	0
0	16696469	68	0
0	16696469	69	0
0	16696469	70	0
0	16696469	71	0
0	16696469	72	0
0	16696469	73	0
0	16696469	74	0
0	16696469	75	0
0	16696469	76	0
vector 1  abilene_network.node[1].content_store  hit_node[1]  ETV
1	16696469	1	0
1	16696469	2	0
1	16696469	3	0
1	16696469	4	0
1	16696469	5	0
1	16696469	6	0
1	16696469	7	0
1	16696469	8	0
1	16696469	9	0
1	16696469	10	0
1	16696469	11	0
1	16696469	12	0
1	16696469	13	0
1	16696469	14	0
1	16696469	15	0
1	16696469	16	0
1	16696469	17	0
1	16696469	18	0
1	16696469	19	0
1	16696469	20	0
1	16696469	21	0
1	16696469	22	0
1	16696469	23	0
1	16696469	24	0
1	16696469	25	0
1	16696469	26	0
1	16696469	27	0
1	16696469	28	0
1	16696469	29	0
1	16696469	30	0
1	16696469	31	0
1	16696469	32	0
1	16696469	33	0
1	16696469	34	0
1	16696469	35	0
1	16696469	36	0
1	16696469	37	0
1	16696469	38	0
1	16696469	39	0
1	16696469	40	0
1	16696469	41	0
1	16696469	42	0
1	16696469	43	0
1	16696469	44	0
1	16696469	45	0
1	16696469	46	0
1	16696469	47	0
1	16696469	48	0
1	16696469	49	0
1	16696469	50	0
1	16696469	51	0
1	16696469	52	0
1	16696469	53	0
1	16696469	54	0
1	16696469	55	0
1	16696469	56	0
1	16696469	57	0
1	16696469	58	0
1	16696469	59	0
1	16696469	60	0
1	16696469	61	0
1	16696469	62	0
1	16696469	63	0
1	16696469	64	0
1	16696469	65	0
1	16696469	66	0
1	16696469	67	0
1	16696469	68	0
1	16696469	69	0
1	16696469	70	0
1	16696469	71	0
1	16696469	72	0
1	16696469	73	0
1	16696469	74	0
1	16696469	75	0
1	16696469	76	0
vector 2  abilene_network.node[2].content_store  hit_node[2]  ETV
2	16696469	1	0
2	16696469	2	0
2	16696469	3	0
2	16696469	4	0
2	16696469	5	0
2	16696469	6	0
2	16696469	7	0
2	16696469	8	0
2	16696469	9	0
2	16696469	10	0
2	16696469	11	0
2	16696469	12	0
2	16696469	13	0
2	16696469	14	0
2	16696469	15	0
2	16696469	16	0
2	16696469	17	0
2	16696469	18	0
2	16696469	19	0
2	16696469	20	0
2	16696469	21	0
2	16696469	22	0
2	16696469	23	0
2	16696469	24	0
2	16696469	25	0
2	16696469	26	0
2	16696469	27	0
2	16696469	28	0
2	16696469	29	0
2	16696469	30	0
2	16696469	31	0
2	16696469	32	0
2	16696469	33	0
2	16696469	34	0
2	16696469	35	0
2	16696469	36	0
2	16696469	37	0
2	16696469	38	0
2	16696469	39	0
2	16696469	40	0
2	16696469	41	0
2	16696469	42	0
2	16696469	43	0
2	16696469	44	0
2	16696469	45	0
2	16696469	46	0
2	16696469	47	0
2	16696469	48	0
2	16696469	49	0
2	16696469	50	0
2	16696469	51	0
2	16696469	52	0
2	16696469	53	0
2	16696469	54	0
2	16696469	55	0
2	16696469	56	0
2	16696469	57	0
2	16696469	58	0
2	16696469	59	0
2	16696469	60	0
2	16696469	61	0
2	16696469	62	0
2	16696469	63	0
2	16696469	64	0
2	16696469	65	0
2	16696469	66	0
2	16696469	67	0
2	16696469	68	0
2	16696469	69	0
2	16696469	70	0
2	16696469	71	0
2	16696469	72	0
2	16696469	73	0
2	16696469	74	0
2	16696469	75	0
2	16696469	76	0
vector 3  abilene_network.node[3].content_store  hit_node[3]  ETV
3	16696469	1	0
3	16696469	2	0
3	16696469	3	0
3	16696469	4	0
3	16696469	5	0
3	16696469	6	0
3	16696469	7	0
3	16696469	8	0
3	16696469	9	0
3	16696469	10	0
3	16696469	11	0
3	16696469	12	0
3	16696469	13	0
3	16696469	14	0
3	16696469	15	0
3	16696469	16	0
3	16696469	17	0
3	16696469	18	0
3	16696469	19	0
3	16696469	20	0
3	16696469	21	0
3	16696469	22	0
3	16696469	23	0
3	16696469	24	0
3	16696469	25	0
3	16696469	26	0
3	16696469	27	0
3	16696469	28	0
3	16696469	29	0
3	16696469	30	0
3	16696469	31	0
3	16696469	32	0
3	16696469	33	0
3	16696469	34	0
3	16696469	35	0
3	16696469	36	0
3	16696469	37	0
3	16696469	38	0
3	16696469	39	0
3	16696469	40	0
3	16696469	41	0
3	16696469	42	0
3	16696469	43	0
3	16696469	44	0
3	16696469	45	0
3	16696469	46	0
3	16696469	47	0
3	16696469	48	0
3	16696469	49	0
3	16696469	50	0
3	16696469	51	0
3	16696469	52	0
3	16696469	53	0
3	16696469	54	0
3	16696469	55	0
3	16696469	56	0
3	16696469	57	0
3	16696469	58	0
3	16696469	59	0
3	16696469	60	0
3	16696469	61	0
3	16696469	62	0
3	16696469	63	0
3	16696469	64	0
3	16696469	65	0
3	16696469	66	0
3	16696469	67	0
3	16696469	68	0
3	16696469	69	0
3	16696469	70	0
3	16696469	71	0
3	16696469	72	0
3	16696469	73	0
3	16696469	74	0
3	16696469	75	0
3	16696469	76	0
vector 4  abilene_network.node[4].content_store  hit_node[4]  ETV
4	16696469	1	0
4	16696469	2	0
4	16696469	3	0
4	16696469	4	0
4	16696469	5	0
4	16696469	6	0
4	16696469	7	0
4	16696469	8	0
4	16696469	9	0
4	16696469	10	0
4	16696469	11	0
4	16696469	12	0
4	16696469	13	0
4	16696469	14	0
4	16696469	15	0
4	16696469	16	0
4	16696469	17	0
4	16696469	18	0
4	16696469	19	0
4	16696469	20	0
4	16696469	21	0
4	16696469	22	0
4	16696469	23	0
4	16696469	24	0
4	16696469	25	0
4	16696469	26	0
4	16696469	27	0
4	16696469	28	0
4	16696469	29	0
4	16696469	30	0
4	16696469	31	0
4	16696469	32	0
4	16696469	33	0
4	16696469	34	0
4	16696469	35	0
4	16696469	36	0
4	16696469	37	0
4	16696469	38	0
4	16696469	39	0
4	16696469	40	0
4	16696469	41	0
4	16696469	42	0
4	16696469	43	0
4	16696469	44	0
4	16696469	45	0
4	16696469	46	0
4	16696469	47	0
4	16696469	48	0
4	16696469	49	0
4	16696469	50	0
4	16696469	51	0
4	16696469	52	0
4	16696469	53	0
4	16696469	54	0
4	16696469	55	0
4	16696469	56	0
4	16696469	57	0
4	16696469	58	0
4	16696469	59	0
4	16696469	60	0
4	16696469	61	0
4	16696469	62	0
4	16696469	63	0
4	16696469	64	0
4	16696469	65	0
4	16696469	66	0
4	16696469	67	0
4	16696469	68	0
4	16696469	69	0
4	16696469	70	0
4	16696469	71	0
4	16696469	72	0
4	16696469	73	0
4	16696469	74	0
4	16696469	75	0
4	16696469	76	0
vector 5  abilene_network.node[5].content_store  hit_node[5]  ETV
5	16696469	1	0
5	16696469	2	0
5	16696469	3	0
5	16696469	4	0
5	16696469	5	0
5	16696469	6	0
5	16696469	7	0
5	16696469	8	0
5	16696469	9	0
5	16696469	10	0
5	16696469	11	0
5	16696469	12	0
5	16696469	13	0
5	16696469	14	0
5	16696469	15	0
5	16696469	16	0
5	16696469	17	0
5	16696469	18	0
5	16696469	19	0
5	16696469	20	0
5	16696469	21	0
5	16696469	22	0
5	16696469	23	0
5	16696469	24	0
5	16696469	25	0
5	16696469	26	0
5	16696469	27	0
5	16696469	28	0
5	16696469	29	0
5	16696469	30	0
5	16696469	31	0
5	16696469	32	0
5	16696469	33	0
5	16696469	34	0
5	16696469	35	0
5	16696469	36	0
5	16696469	37	0
5	16696469	38	0
5	16696469	39	0
5	16696469	40	0
5	16696469	41	0
5	16696469	42	0
5	16696469	43	0
5	16696469	44	0
5	16696469	45	0
5	16696469	46	0
5	16696469	47	0
5	16696469	48	0
5	16696469	49	0
5	16696469	50	0
5	16696469	51	0
5	16696469	52	0
5	16696469	53	0
5	16696469	54	0
5	16696469	55	0
5	16696469	56	0
5	16696469	57	0
5	16696469	58	0
5	16696469	59	0
5	16696469	60	0
5	16696469	61	0
5	16696469	62	0
5	16696469	63	0
5	16696469	64	0
5	16696469	65	0
5	16696469	66	0
5	16696469	67	0
5	16696469	68	0
5	16696469	69	0
5	16696469	70	0
5	16696469	71	0
5	16696469	72	0
5	16696469	73	0
5	16696469	74	0
5	16696469	75	0
5	16696469	76	0
vector 6  abilene_network.node[6].content_store  hit_node[6]  ETV
6	16696469	1	0
6	16696469	2	0
6	16696469	3	0
6	16696469	4	0
6	16696469	5	0
6	16696469	6	0
6	16696469	7	0
6	16696469	8	0
6	16696469	9	0
6	16696469	10	0
6	16696469	11	0
6	16696469	12	0
6	16696469	13	0
6	16696469	14	0
6	16696469	15	0
6	16696469	16	0
6	16696469	17	0
6	16696469	18	0
6	16696469	19	0
6	16696469	20	0
6	16696469	21	0
6	16696469	22	0
6	16696469	23	0
6	16696469	24	0
6	16696469	25	0
6	16696469	26	0
6	16696469	27	0
6	16696469	28	0
6	16696469	29	0
6	16696469	30	0
6	16696469	31	0
6	16696469	32	0
6	16696469	33	0
6	16696469	34	0
6	16696469	35	0
6	16696469	36	0
6	16696469	37	0
6	16696469	38	0
6	16696469	39	0
6	16696469	40	0
6	16696469	41	0
6	16696469	42	0
6	16696469	43	0
6	16696469	44	0
6	16696469	45	0
6	16696469	46	0
6	16696469	47	0
6	16696469	48	0
6	16696469	49	0
6	16696469	50	0
6	16696469	51	0
6	16696469	52	0
6	16696469	53	0
6	16696469	54	0
6	16696469	55	0
6	16696469	56	0
6	16696469	57	0
6	16696469	58	0
6	16696469	59	0
6	16696469	60	0
6	16696469	61	0
6	16696469	62	0
6	16696469	63	0
6	16696469	64	0
6	16696469	65	0
6	16696469	66	0
6	16696469	67	0
6	16696469	68	0
6	16696469	69	0
6	16696469	70	0
6	16696469	71	0
6	16696469	72	0
6	16696469	73	0
6	16696469	74	0
6	16696469	75	0
6	16696469	76	0
vector 7  abilene_network.node[7].content_store  hit_node[7]  ETV
7	16696469	1	0
7	16696469	2	0
7	16696469	3	0
7	16696469	4	0
7	16696469	5	0
7	16696469	6	0
7	16696469	7	0
7	16696469	8	0
7	16696469	9	0
7	16696469	10	0
7	16696469	11	0
7	16696469	12	0
7	16696469	13	0
7	16696469	14	0
7	16696469	15	0
7	16696469	16	0
7	16696469	17	0
7	16696469	18	0
7	16696469	19	0
7	16696469	20	0
7	16696469	21	0
7	16696469	22	0
7	16696469	23	0
7	16696469	24	0
7	16696469	25	0
7	16696469	26	0
7	16696469	27	0
7	16696469	28	0
7	16696469	29	0
7	16696469	30	0
7	16696469	31	0
7	16696469	32	0
7	16696469	33	0
7	16696469	34	0
7	16696469	35	0
7	16696469	36	0
7	16696469	37	0
7	16696469	38	0
7	16696469	39	0
7	16696469	40	0
7	16696469	41	0
7	16696469	42	0
7	16696469	43	0
7	16696469	44	0
7	16696469	45	0
7	16696469	46	0
7	16696469	47	0
7	16696469	48	0
7	16696469	49	0
7	16696469	50	0
7	16696469	51	0
7	16696469	52	0
7	16696469	53	0
7	16696469	54	0
7	16696469	55	0
7	16696469	56	0
7	16696469	57	0
7	16696469	58	0
7	16696469	59	0
7	16696469	60	0
7	16696469	61	0
7	16696469	62	0
7	16696469	63	0
7	16696469	64	0
7	16696469	65	0
7	16696469	66	0
7	16696469	67	0
7	16696469	68	0
7	16696469	69	0
7	16696469	70	0
7	16696469	71	0
7	16696469	72	0
7	16696469	73	0
7	16696469	74	0
7	16696469	75	0
7	16696469	76	0
vector 8  abilene_network.node[8].content_store  hit_node[8]  ETV
8	16696469	1	0
8	16696469	2	0
8	16696469	3	0
8	16696469	4	0
8	16696469	5	0
8	16696469	6	0
8	16696469	7	0
8	16696469	8	0
8	16696469	9	0
8	16696469	10	0
8	16696469	11	0
8	16696469	12	0
8	16696469	13	0
8	16696469	14	0
8	16696469	15	0
8	16696469	16	0
8	16696469	17	0
8	16696469	18	0
8	16696469	19	0
8	16696469	20	0
8	16696469	21	0
8	16696469	22	0
8	16696469	23	0
8	16696469	24	0
8	16696469	25	0
8	16696469	26	0
8	16696469	27	0
8	16696469	28	0
8	16696469	29	0
8	16696469	30	0
8	16696469	31	0
8	16696469	32	0
8	16696469	33	0
8	16696469	34	0
8	16696469	35	0
8	16696469	36	0
8	16696469	37	0
8	16696469	38	0
8	16696469	39	0
8	16696469	40	0
8	16696469	41	0
8	16696469	42	0
8	16696469	43	0
8	16696469	44	0
8	16696469	45	0
8	16696469	46	0
8	16696469	47	0
8	16696469	48	0
8	16696469	49	0
8	16696469	50	0
8	16696469	51	0
8	16696469	52	0
8	16696469	53	0
8	16696469	54	0
8	16696469	55	0
8	16696469	56	0
8	16696469	57	0
8	16696469	58	0
8	16696469	59	0
8	16696469	60	0
8	16696469	61	0
8	16696469	62	0
8	16696469	63	0
8	16696469	64	0
8	16696469	65	0
8	16696469	66	0
8	16696469	67	0
8	16696469	68	0
8	16696469	69	0
8	16696469	70	0
8	16696469	71	0
8	16696469	72	0
8	16696469	73	0
8	16696469	74	0
8	16696469	75	0
8	16696469	76	0
vector 9  abilene_network.node[9].content_store  hit_node[9]  ETV
9	16696469	1	0
9	16696469	2	0
9	16696469	3	0
9	16696469	4	0
9	16696469	5	0
9	16696469	6	0
9	16696469	7	0
9	16696469	8	0
9	16696469	9	0
9	16696469	10	0
9	16696469	11	0
9	16696469	12	0
9	16696469	13	0
9	16696469	14	0
9	16696469	15	0
9	16696469	16	0
9	16696469	17	0
9	16696469	18	0
9	16696469	19	0
9	16696469	20	0
9	16696469	21	0
9	16696469	22	0
9	16696469	23	0
9	16696469	24	0
9	16696469	25	0
9	16696469	26	0
9	16696469	27	0
9	16696469	28	0
9	16696469	29	0
9	16696469	30	0
9	16696469	31	0
9	16696469	32	0
9	16696469	33	0
9	16696469	34	0
9	16696469	35	0
9	16696469	36	0
9	16696469	37	0
9	16696469	38	0
9	16696469	39	0
9	16696469	40	0
9	16696469	41	0
9	16696469	42	0
9	16696469	43	0
9	16696469	44	0
9	16696469	45	0
9	16696469	46	0
9	16696469	47	0
9	16696469	48	0
9	16696469	49	0
9	16696469	50	0
9	16696469	51	0
9	16696469	52	0
9	16696469	53	0
9	16696469	54	0
9	16696469	55	0
9	16696469	56	0
9	16696469	57	0
9	16696469	58	0
9	16696469	59	0
9	16696469	60	0
9	16696469	61	0
9	16696469	62	0
9	16696469	63	0
9	16696469	64	0
9	16696469	65	0
9	16696469	66	0
9	16696469	67	0
9	16696469	68	0
9	16696469	69	0
9	16696469	70	0
9	16696469	71	0
9	16696469	72	0
9	16696469	73	0
9	16696469	74	0
9	16696469	75	0
9	16696469	76	0
vector 10  abilene_network.node[10].content_store  hit_node[10]  ETV
10	16696469	1	0
10	16696469	2	0
10	16696469	3	0
10	16696469	4	0
10	16696469	5	0
10	16696469	6	0
10	16696469	7	0
10	16696469	8	0
10	16696469	9	0
10	16696469	10	0
10	16696469	11	0
10	16696469	12	0
10	16696469	13	0
10	16696469	14	0
10	16696469	15	0
10	16696469	16	0
10	16696469	17	0
10	16696469	18	0
10	16696469	19	0
10	16696469	20	0
10	16696469	21	0
10	16696469	22	0
10	16696469	23	0
10	16696469	24	0
10	16696469	25	0
10	16696469	26	0
10	16696469	27	0
10	16696469	28	0
10	16696469	29	0
10	16696469	30	0
10	16696469	31	0
10	16696469	32	0
10	16696469	33	0
10	16696469	34	0
10	16696469	35	0
10	16696469	36	0
10	16696469	37	0
10	16696469	38	0
10	16696469	39	0
10	16696469	40	0
10	16696469	41	0
10	16696469	42	0
10	16696469	43	0
10	16696469	44	0
10	16696469	45	0
10	16696469	46	0
10	16696469	47	0
10	16696469	48	0
10	16696469	49	0
10	16696469	50	0
10	16696469	51	0
10	16696469	52	0
10	16696469	53	0
10	16696469	54	0
10	16696469	55	0
10	16696469	56	0
10	16696469	57	0
10	16696469	58	0
10	16696469	59	0
10	16696469	60	0
10	16696469	61	0
10	16696469	62	0
10	16696469	63	0
10	16696469	64	0
10	16696469	65	0
10	16696469	66	0
10	16696469	67	0
10	16696469	68	0
10	16696469	69	0
10	16696469	70	0
10	16696469	71	0
10	16696469	72	0
10	16696469	73	0
10	16696469	74	0
10	16696469	75	0
10	16696469	76	0
vector 11  abilene_network.client[0]  hdistance[0]  ETV
11	16696469	1	6
11	16696469	2	6
11	16696469	3	6
11	16696469	4	6
11	16696469	5	6
11	16696469	6	6
11	16696469	7	6
11	16696469	8	6
11	16696469	9	6
11	16696469	10	6
11	16696469	11	6
11	16696469	12	6
11	16696469	13	6
11	16696469	14	6
11	16696469	15	6
11	16696469	16	6
11	16696469	17	6
11	16696469	18	6
11	16696469	19	6
11	16696469	20	6
11	16696469	21	6
11	16696469	22	6
11	16696469	23	6
11	16696469	24	6
11	16696469	25	6
11	16696469	26	6
11	16696469	27	6
11	16696469	28	6
11	16696469	29	6
11	16696469	30	6
11	16696469	31	6
11	16696469	32	6
11	16696469	33	6
11	16696469	34	6
11	16696469	35	6
11	16696469	36	6
11	16696469	37	6
11	16696469	38	6
11	16696469	39	6
11	16696469	40	6
11	16696469	41	6
11	16696469	42	6
11	16696469	43	6
11	16696469	44	6
11	16696469	45	6
11	16696469	46	6
11	16696469	47	6
11	16696469	48	6
11	16696469	49	6
11	16696469	50	6
11	16696469	51	6
11	16696469	52	6
11	16696469	53	6
11	16696469	54	6
11	16696469	55	6
11	16696469	56	6
11	16696469	57	6
11	16696469	58	6
11	16696469	59	6
11	16696469	60	6
11	16696469	61	6
11	16696469	62	6
11	16696469	63	6
11	16696469	64	6
11	16696469	65	6
11	16696469	66	6
11	16696469	67	6
11	16696469	68	6
11	16696469	69	6
11	16696469	70	6
11	16696469	71	6
11	16696469	72	6
11	16696469	73	6
11	16696469	74	6
11	16696469	75	6
11	16696469	76	6
vector 12  abilene_network.client[1]  hdistance[1]  ETV
12	16696469	1	5
12	16696469	2	5
12	16696469	3	5
12	16696469	4	5
12	16696469	5	5
12	16696469	6	5
12	16696469	7	5
12	16696469	8	5
12	16696469	9	5
12	16696469	10	5
12	16696469	11	5
12	16696469	12	5
12	16696469	13	5
12	16696469	14	5
12	16696469	15	5
12	16696469	16	5
12	16696469	17	5
12	16696469	18	5
12	16696469	19	5
12	16696469	20	5
12	16696469	21	5
12	16696469	22	5
12	16696469	23	5
12	16696469	24	5
12	16696469	25	5
12	16696469	26	5
12	16696469	27	5
12	16696469	28	5
12	16696469	29	5
12	16696469	30	5
12	16696469	31	5
12	16696469	32	5
12	16696469	33	5
12	16696469	34	5
12	16696469	35	5
12	16696469	36	5
12	16696469	37	5
12	16696469	38	5
12	16696469	39	5
12	16696469	40	5
12	16696469	41	5
12	16696469	42	5
12	16696469	43	5
12	16696469	44	5
12	16696469	45	5
12	16696469	46	5
12	16696469	47	5
12	16696469	48	5
12	16696469	49	5
12	16696469	50	5
12	16696469	51	5
12	16696469	52	5
12	16696469	53	5
12	16696469	54	5
12	16696469	55	5
12	16696469	56	5
12	16696469	57	5
12	16696469	58	5
12	16696469	59	5
12	16696469	60	5
12	16696469	61	5
12	16696469	62	5
12	16696469	63	5
12	16696469	64	5
12	16696469	65	5
12	16696469	66	5
12	16696469	67	5
12	16696469	68	5
12	16696469	69	5
12	16696469	70	5
12	16696469	71	5
12	16696469	72	5
12	16696469	73	5
12	16696469	74	5
12	16696469	75	5
12	16696469	76	5
vector 13  abilene_network.client[2]  hdistance[2]  ETV
13	16696469	1	4
13	16696469	2	4
13	16696469	3	4
13	16696469	4	4
13	16696469	5	4
13	16696469	6	4
13	16696469	7	4
13	16696469	8	4
13	16696469	9	4
13	16696469	10	4
13	16696469	11	4
13	16696469	12	4
13	16696469	13	4
13	16696469	14	4
13	16696469	15	4
13	16696469	16	4
13	16696469	17	4
13	16696469	18	4
13	16696469	19	4
13	16696469	20	4
13	16696469	21	4
13	16696469	22	4
13	16696469	23	4
13	16696469	24	4
13	16696469	25	4
13	16696469	26	4
13	16696469	27	4
13	16696469	28	4
13	16696469	29	4
13	16696469	30	4
13	16696469	31	4
13	16696469	32	4
13	16696469	33	4
13	16696469	34	4
13	16696469	35	4
13	16696469	36	4
13	16696469	37	4
13	16696469	38	4
13	16696469	39	4
13	16696469	40	4
13	16696469	41	4
13	16696469	42	4
13	16696469	43	4
13	16696469	44	4
13	16696469	45	4
13	16696469	46	4
13	16696469	47	4
13	16696469	48	4
13	16696469	49	4
13	16696469	50	4
13	16696469	51	4
13	16696469	52	4
13	16696469	53	4
13	16696469	54	4
13	16696469	55	4
13	16696469	56	4
13	16696469	57	4
13	16696469	58	4
13	16696469	59	4
13	16696469	60	4
13	16696469	61	4
13	16696469	62	4
13	16696469	63	4
13	16696469	64	4
13	16696469	65	4
13	16696469	66	4
13	16696469	67	4
13	16696469	68	4
13	16696469	69	4
13	16696469	70	4
13	16696469	71	4
13	16696469	72	4
13	16696469	73	4
13	16696469	74	4
13	16696469	75	4
13	16696469	76	4
vector 14  abilene_network.client[3]  hdistance[3]  ETV
14	16696469	1	3
14	16696469	2	3
14	16696469	3	3
14	16696469	4	3
14	16696469	5	3
14	16696469	6	3
14	16696469	7	3
14	16696469	8	3
14	16696469	9	3
14	16696469	10	3
14	16696469	11	3
14	16696469	12	3
14	16696469	13	3
14	16696469	14	3
14	16696469	15	3
14	16696469	16	3
14	16696469	17	3
14	16696469	18	3
14	16696469	19	3
14	16696469	20	3
14	16696469	21	3
14	16696469	22	3
14	16696469	23	3
14	16696469	24	3
14	16696469	25	3
14	16696469	26	3
14	16696469	27	3
14	16696469	28	3
14	16696469	29	3
14	16696469	30	3
14	16696469	31	3
14	16696469	32	3
14	16696469	33	3
14	16696469	34	3
14	16696469	35	3
14	16696469	36	3
14	16696469	37	3
14	16696469	38	3
14	16696469	39	3
14	16696469	40	3
14	16696469	41	3
14	16696469	42	3
14	16696469	43	3
14	16696469	44	3
14	16696469	45	3
14	16696469	46	3
14	16696469	47	3
14	16696469	48	3
14	16696469	49	3
14	16696469	50	3
14	16696469	51	3
14	16696469	52	3
14	16696469	53	3
14	16696469	54	3
14	16696469	55	3
14	16696469	56	3
14	16696469	57	3
14	16696469	58	3
14	16696469	59	3
14	16696469	60	3
14	16696469	61	3
14	16696469	62	3
14	16696469	63	3
14	16696469	64	3
14	16696469	65	3
14	16696469	66	3
14	16696469	67	3
14	16696469	68	3
14	16696469	69	3
14	16696469	70	3
14	16696469	71	3
14	16696469	72	3
14	16696469	73	3
14	16696469	74	3
14	16696469	75	3
14	16696469	76	3
vector 15  abilene_network.client[4]  hdistance[4]  ETV
15	16696469	1	2
15	16696469	2	2
15	16696469	3	2
15	16696469	4	2
15	16696469	5	2
15	16696469	6	2
15	16696469	7	2
15	16696469	8	2
15	16696469	9	2
15	16696469	10	2
15	16696469	11	2
15	16696469	12	2
15	16696469	13	2
15	16696469	14	2
15	16696469	15	2
15	16696469	16	2
15	16696469	17	2
15	16696469	18	2
15	16696469	19	2
15	16696469	20	2
15	16696469	21	2
15	16696469	22	2
15	16696469	23	2
15	16696469	24	2
15	16696469	25	2
15	16696469	26	2
15	16696469	27	2
15	16696469	28	2
15	16696469	29	2
15	16696469	30	2
15	16696469	31	2
15	16696469	32	2
15	16696469	33	2
15	16696469	34	2
15	16696469	35	2
15	16696469	36	2
15	16696469	37	2
15	16696469	38	2
15	16696469	39	2
15	16696469	40	2
15	16696469	41	2
15	16696469	42	2
15	16696469	43	2
15	16696469	44	2
15	16696469	45	2
15	16696469	46	2
15	16696469	47	2
15	16696469	48	2
15	16696469	49	2
15	16696469	50	2
15	16696469	51	2
15	16696469	52	2
15	16696469	53	2
15	16696469	54	2
15	16696469	55	2
15	16696469	56	2
15	16696469	57	2
15	16696469	58	2
15	16696469	59	2
15	16696469	60	2
15	16696469	61	2
15	16696469	62	2
15	16696469	63	2
15	16696469	64	2
15	16696469	65	2
15	16696469	66	2
15	16696469	67	2
15	16696469	68	2
15	16696469	69	2
15	16696469	70	2
15	16696469	71	2
15	16696469	72	2
15	16696469	73	2
15	16696469	74	2
15	16696469	75	2
15	16696469	76	2
vector 16  abilene_network.client[5]  hdistance[5]  ETV
16	16696469	1	1
16	16696469	2	1
16	16696469	3	1
16	16696469	4	1
16	16696469	5	1
16	16696469	6	1
16	16696469	7	1
16	16696469	8	1
16	16696469	9	1
16	16696469	10	1
16	16696469	11	1
16	16696469	12	1
16	16696469	13	1
16	16696469	14	1
16	16696469	15	1
16	16696469	16	1
16	16696469	17	1
16	16696469	18	1
16	16696469	19	1
16	16696469	20	1
16	16696469	21	1
16	16696469	22	1
16	16696469	23	1
16	16696469	24	1
16	16696469	25	1
16	16696469	26	1
16	16696469	27	1
16	16696469	28	1
16	16696469	29	1
16	16696469	30	1
16	16696469	31	1
16	16696469	32	1
16	16696469	33	1
16	16696469	34	1
16	16696469	35	1
16	16696469	36	1
16	16696469	37	1
16	16696469	38	1
16	16696469	39	1
16	16696469	40	1
16	16696469	41	1
16	16696469	42	1
16	16696469	43	1
16	16696469	44	1
16	16696469	45	1
16	16696469	46	1
16	16696469	47	1
16	16696469	48	1
16	16696469	49	1
16	16696469	50	1
16	16696469	51	1
16	16696469	52	1
16	16696469	53	1
16	16696469	54	1
16	16696469	55	1
16	16696469	56	1
16	16696469	57	1
16	16696469	58	1
16	16696469	59	1
16	16696469	60	1
16	16696469	61	1
16	16696469	62	1
16	16696469	63	1
16	16696469	64	1
16	16696469	65	1
16	16696469	66	1
16	16696469	67	1
16	16696469	68	1
16	16696469	69	1
16	16696469	70	1
16	16696469	71	1
16	16696469	72	1
16	16696469	73	1
16	16696469	74	1
16	16696469	75	1
16	16696469	76	1
vector 17  abilene_network.client[6]  hdistance[6]  ETV
17	16696469	1	2
17	16696469	2	2
17	16696469	3	2
17	16696469	4	2
17	16696469	5	2
17	16696469	6	2
17	16696469	7	2
17	16696469	8	2
17	16696469	9	2
17	16696469	10	2
17	16696469	11	2
17	16696469	12	2
17	16696469	13	2
17	16696469	14	2
17	16696469	15	2
17	16696469	16	2
17	16696469	17	2
17	16696469	18	2
17	16696469	19	2
17	16696469	20	2
17	16696469	21	2
17	16696469	22	2
17	16696469	23	2
17	16696469	24	2
17	16696469	25	2
17	16696469	26	2
17	16696469	27	2
17	16696469	28	2
17	16696469	29	2
17	16696469	30	2
17	16696469	31	2
17	16696469	32	2
17	16696469	33	2
17	16696469	34	2
17	16696469	35	2
17	16696469	36	2
17	16696469	37	2
17	16696469	38	2
17	16696469	39	2
17	16696469	40	2
17	16696469	41	2
17	16696469	42	2
17	16696469	43	2
17	16696469	44	2
17	16696469	45	2
17	16696469	46	2
17	16696469	47	2
17	16696469	48	2
17	16696469	49	2
17	16696469	50	2
17	16696469	51	2
17	16696469	52	2
17	16696469	53	2
17	16696469	54	2
17	16696469	55	2
17	16696469	56	2
17	16696469	57	2
17	16696469	58	2
17	16696469	59	2
17	16696469	60	2
17	16696469	61	2
17	16696469	62	2
17	16696469	63	2
17	16696469	64	2
17	16696469	65	2
17	16696469	66	2
17	16696469	67	2
17	16696469	68	2
17	16696469	69	2
17	16696469	70	2
17	16696469	71	2
17	16696469	72	2
17	16696469	73	2
17	16696469	74	2
17	16696469	75	2
17	16696469	76	2
vector 18  abilene_network.client[7]  hdistance[7]  ETV
18	16696469	1	3
18	16696469	2	3
18	16696469	3	3
18	16696469	4	3
18	16696469	5	3
18	16696469	6	3
18	16696469	7	3
18	16696469	8	3
18	16696469	9	3
18	16696469	10	3
18	16696469	11	3
18	16696469	12	3
18	16696469	13	3
18	16696469	14	3
18	16696469	15	3
18	16696469	16	3
18	16696469	17	3
18	16696469	18	3
18	16696469	19	3
18	16696469	20	3
18	16696469	21	3
18	16696469	22	3
18	16696469	23	3
18	16696469	24	3
18	16696469	25	3
18	16696469	26	3
18	16696469	27	3
18	16696469	28	3
18	16696469	29	3
18	16696469	30	3
18	16696469	31	3
18	16696469	32	3
18	16696469	33	3
18	16696469	34	3
18	16696469	35	3
18	16696469	36	3
18	16696469	37	3
18	16696469	38	3
18	16696469	39	3
18	16696469	40	3
18	16696469	41	3
18	16696469	42	3
18	16696469	43	3
18	16696469	44	3
18	16696469	45	3
18	16696469	46	3
18	16696469	47	3
18	16696469	48	3
18	16696469	49	3
18	16696469	50	3
18	16696469	51	3
18	16696469	52	3
18	16696469	53	3
18	16696469	54	3
18	16696469	55	3
18	16696469	56	3
18	16696469	57	3
18	16696469	58	3
18	16696469	59	3
18	16696469	60	3
18	16696469	61	3
18	16696469	62	3
18	16696469	63	3
18	16696469	64	3
18	16696469	65	3
18	16696469	66	3
18	16696469	67	3
18	16696469	68	3
18	16696469	69	3
18	16696469	70	3
18	16696469	71	3
18	16696469	72	3
18	16696469	73	3
18	16696469	74	3
18	16696469	75	3
18	16696469	76	3
vector 19  abilene_network.client[8]  hdistance[8]  ETV
19	16696469	1	4
19	16696469	2	4
19	16696469	3	4
19	16696469	4	4
19	16696469	5	4
19	16696469	6	4
19	16696469	7	4
19	16696469	8	4
19	16696469	9	4
19	16696469	10	4
19	16696469	11	4
19	16696469	12	4
19	16696469	13	4
19	16696469	14	4
19	16696469	15	4
19	16696469	16	4
19	16696469	17	4
19	16696469	18	4
19	16696469	19	4
19	16696469	20	4
19	16696469	21	4
19	16696469	22	4
19	16696469	23	4
19	16696469	24	4
19	16696469	25	4
19	16696469	26	4
19	16696469	27	4
19	16696469	28	4
19	16696469	29	4
19	16696469	30	4
19	16696469	31	4
19	16696469	32	4
19	16696469	33	4
19	16696469	34	4
19	16696469	35	4
19	16696469	36	4
19	16696469	37	4
19	16696469	38	4
19	16696469	39	4
19	16696469	40	4
19	16696469	41	4
19	16696469	42	4
19	16696469	43	4
19	16696469	44	4
19	16696469	45	4
19	16696469	46	4
19	16696469	47	4
19	16696469	48	4
19	16696469	49	4
19	16696469	50	4
19	16696469	51	4
19	16696469	52	4
19	16696469	53	4
19	16696469	54	4
19	16696469	55	4
19	16696469	56	4
19	16696469	57	4
19	16696469	58	4
19	16696469	59	4
19	16696469	60	4
19	16696469	61	4
19	16696469	62	4
19	16696469	63	4
19	16696469	64	4
19	16696469	65	4
19	16696469	66	4
19	16696469	67	4
19	16696469	68	4
19	16696469	69	4
19	16696469	70	4
19	16696469	71	4
19	16696469	72	4
19	16696469	73	4
19	16696469	74	4
19	16696469	75	4
19	16696469	76	4
vector 20  abilene_network.client[9]  hdistance[9]  ETV
20	16696469	1	5
20	16696469	2	5
20	16696469	3	5
20	16696469	4	5
20	16696469	5	5
20	16696469	6	5
20	16696469	7	5
20	16696469	8	5
20	16696469	9	5
20	16696469	10	5
20	16696469	11	5
20	16696469	12	5
20	16696469	13	5
20	16696469	14	5
20	16696469	15	5
20	16696469	16	5
20	16696469	17	5
20	16696469	18	5
20	16696469	19	5
20	16696469	20	5
20	16696469	21	5
20	16696469	22	5
20	16696469	23	5
20	16696469	24	5
20	16696469	25	5
20	16696469	26	5
20	16696469	27	5
20	16696469	28	5
20	16696469	29	5
20	16696469	30	5
20	16696469	31	5
20	16696469	32	5
20	16696469	33	5
20	16696469	34	5
20	16696469	35	5
20	16696469	36	5
20	16696469	37	5
20	16696469	38	5
20	16696469	39	5
20	16696469	40	5
20	16696469	41	5
20	16696469	42	5
20	16696469	43	5
20	16696469	44	5
20	16696469	45	5
20	16696469	46	5
20	16696469	47	5
20	16696469	48	5
20	16696469	49	5
20	16696469	50	5
20	16696469	51	5
20	16696469	52	5
20	16696469	53	5
20	16696469	54	5
20	16696469	55	5
20	16696469	56	5
20	16696469	57	5
20	16696469	58	5
20	16696469	59	5
20	16696469	60	5
20	16696469	61	5
20	16696469	62	5
20	16696469	63	5
20	16696469	64	5
20	16696469	65	5
20	16696469	66	5
20	16696469	67	5
20	16696469	68	5
20	16696469	69	5
20	16696469	70	5
20	16696469	71	5
20	16696469	72	5
20	16696469	73	5
20	16696469	74	5
20	16696469	75	5
20	16696469	76	5
vector 21  abilene_network.client[10]  hdistance[10]  ETV
21	16696469	1	6
21	16696469	2	6
21	16696469	3	6
21	16696469	4	6
21	16696469	5	6
21	16696469	6	6
21	16696469	7	6
21	16696469	8	6
21	16696469	9	6
21	16696469	10	6
21	16696469	11	6
21	16696469	12	6
21	16696469	13	6
21	16696469	14	6
21	16696469	15	6
21	16696469	16	6
21	16696469	17	6
21	16696469	18	6
21	16696469	19	6
21	16696469	20	6
21	16696469	21	6
21	16696469	22	6
21	16696469	23	6
21	16696469	24	6
21	16696469	25	6
21	16696469	26	6
21	16696469	27	6
21	16696469	28	6
21	16696469	29	6
21	16696469	30	6
21	16696469	31	6
21	16696469	32	6
21	16696469	33	6
21	16696469	34	6
21	16696469	35	6
21	16696469	36	6
21	16696469	37	6
21	16696469	38	6
21	16696469	39	6
21	16696469	40	6
21	16696469	41	6
21	16696469	42	6
21	16696469	43	6
21	16696469	44	6
21	16696469	45	6
21	16696469	46	6
21	16696469	47	6
21	16696469	48	6
21	16696469	49	6
21	16696469	50	6
21	16696469	51	6
21	16696469	52	6
21	16696469	53	6
21	16696469	54	6
21	16696469	55	6
21	16696469	56	6
21	16696469	57	6
21	16696469	58	6
21	16696469	59	6
21	16696469	60	6
21	16696469	61	6
21	16696469	62	6
21	16696469	63	6
21	16696469	64	6
21	16696469	65	6
21	16696469	66	6
21	16696469	67	6
21	16696469	68	6
21	16696469	69	6
21	16696469	70	6
21	16696469	71	6
21	16696469	72	6
21	16696469	73	6
21	16696469	74	6
21	16696469	75	6
21	16696469	76	6
