version 2
run General-0-20150629-10:21:05-17710
attr D lce
attr F spr
attr R lru_repr
attr a 1
attr configname General
attr datetime 20150629-10:21:05
attr experiment General
attr inifile omnetpp.ini
attr iterationvars "$net=video_simple_scenario, $rep=0, $a=1, $F=spr, $ttl=1000, $D=lce, $R=lru_repr, $window=60, $variance=0.05, $mytime=180000"
attr iterationvars2 "$net=video_simple_scenario, $rep=0, $a=1, $F=spr, $ttl=1000, $D=lce, $R=lru_repr, $window=60, $variance=0.05, $mytime=180000, $repetition=0"
attr measurement "$net=video_simple_scenario, $rep=0, $a=1, $F=spr, $ttl=1000, $D=lce, $R=lru_repr, $window=60, $variance=0.05, $mytime=180000"
attr mytime 180000
attr net video_simple_scenario
attr network networks.${net=video_simple_scenario}_network
attr processid 17710
attr rep 0
attr repetition 0
attr replication #0
attr resultdir results
attr runnumber 0
attr seedset 0
attr ttl 1000
attr variance 0.05
attr window 60

vector 0  video_simple_scenario_network.node[0].content_store  hit_node[0]  ETV
0	58467467	1	0.98050676175738
0	58467467	2	0.84490601095533
0	58467467	3	0.69728043993008
0	58467467	4	0.58859504784029
0	58467467	5	0.50867731528493
0	58467467	6	0.44958255727627
0	58467467	7	0.40753862097221
0	58467467	8	0.37177972765598
0	58467467	9	0.34224265565339
0	58467467	10	0.31712514359375
0	58467467	11	0.29874375603963
0	58467467	12	0.28014776606877
0	58467467	13	0.26434538620972
0	58467467	14	0.25208759160477
0	58467467	15	0.23799655506513
0	58467467	16	0.22560563195904
0	58467467	17	0.21632303333925
0	58467467	18	0.20779990614426
0	58467467	19	0.20044131316729
0	58467467	20	0.19241745555299
0	58467467	21	0.18447389511132
0	58467467	22	0.17670831786878
0	58467467	23	0.16905388288025
0	58467467	24	0.16786967306532
0	58467467	25	0.1600762604152
0	58467467	26	0.15451603340086
0	58467467	27	0.14970351926483
0	58467467	28	0.14476483575299
0	58467467	29	0.14090764397326
0	58467467	30	0.13683252427184
0	58467467	31	0.13532424224379
0	58467467	32	0.13034753119069
0	58467467	33	0.12864035157556
0	58467467	34	0.12196620073708
0	58467467	35	0.12298493264706
0	58467467	36	0.12031119755488
0	58467467	37	0.11630922154395
0	58467467	38	0.11391347920494
0	58467467	39	0.11210169101576
0	58467467	40	0.10926347164483
0	58467467	41	0.10629865819067
0	58467467	42	0.1043137904612
0	58467467	43	0.10050914978377
0	58467467	44	0.10196280548039
0	58467467	45	0.099993298036325
0	58467467	46	0.096647441347457
0	58467467	47	0.092785679139624
0	58467467	48	0.092790576659255
0	58467467	49	0.092542611909451
0	58467467	50	0.090745417718987
0	58467467	51	0.088025741208917
0	58467467	52	0.088146455493394
0	58467467	53	0.083773848176671
0	58467467	54	0.083089589426931
0	58467467	55	0.084454884620699
0	58467467	56	0.079166549027358
0	58467467	57	0.079724185092318
0	58467467	58	0.079181106031043
0	58467467	59	0.078082110036997
0	58467467	60	0.079077279375914
0	58467467	61	0.076517068954874
0	58467467	62	0.075947418649755
0	58467467	63	0.073151876308584
0	58467467	64	0.072459069541255
0	58467467	65	0.070350767612348
0	58467467	66	0.069818987809383
0	58467467	67	0.070739003331294
0	58467467	68	0.069261236438781
0	58467467	69	0.066408470722001
0	58467467	70	0.068231711635153
0	58467467	71	0.064684308931397
0	58467467	72	0.064031942031129
0	58467467	73	0.064470447939182
0	58467467	74	0.063725122042809
0	58467467	75	0.062466692044157
0	58467467	76	0.061503594873398
vector 1  video_simple_scenario_network.node[0].proactive_component  hdistance[0].proactive_component  ETV
1	58467467	1	1
1	58467467	2	1
1	58467467	3	1
1	58467467	4	1
1	58467467	5	1
1	58467467	6	1
1	58467467	7	1
1	58467467	8	1
1	58467467	9	1
1	58467467	10	1
1	58467467	11	1
1	58467467	12	1
1	58467467	13	1
1	58467467	14	1
1	58467467	15	1
1	58467467	16	1
1	58467467	17	1
1	58467467	18	1
1	58467467	19	1
1	58467467	20	1
1	58467467	21	1
1	58467467	22	1
1	58467467	23	1
1	58467467	24	1
1	58467467	25	1
1	58467467	26	1
1	58467467	27	1
1	58467467	28	1
1	58467467	29	1
1	58467467	30	1
1	58467467	31	1
1	58467467	32	1
1	58467467	33	1
1	58467467	34	1
1	58467467	35	1
1	58467467	36	1
1	58467467	37	1
1	58467467	38	1
1	58467467	39	1
1	58467467	40	1
1	58467467	41	1
1	58467467	42	1
1	58467467	43	1
1	58467467	44	1
1	58467467	45	1
1	58467467	46	1
1	58467467	47	1
1	58467467	48	1
1	58467467	49	1
1	58467467	50	1
1	58467467	51	1
1	58467467	52	1
1	58467467	53	1
1	58467467	54	1
1	58467467	55	1
1	58467467	56	1
1	58467467	57	1
1	58467467	58	1
1	58467467	59	1
1	58467467	60	1
1	58467467	61	1
1	58467467	62	1
1	58467467	63	1
1	58467467	64	1
1	58467467	65	1
1	58467467	66	1
1	58467467	67	1
1	58467467	68	1
1	58467467	69	1
1	58467467	70	1
1	58467467	71	1
1	58467467	72	1
1	58467467	73	1
1	58467467	74	1
1	58467467	75	1
1	58467467	76	1
