version 2
run General-2-20150629-10:18:07-17477
attr D lce
attr F spr
attr R lru_repr
attr a 1
attr configname General
attr datetime 20150629-10:18:07
attr experiment General
attr inifile omnetpp.ini
attr iterationvars "$net=video_simple_scenario, $rep=0, $a=1, $F=spr, $ttl=1000, $D=lce, $R=lru_repr, $window=60, $variance=0.05, $mytime=18000"
attr iterationvars2 "$net=video_simple_scenario, $rep=0, $a=1, $F=spr, $ttl=1000, $D=lce, $R=lru_repr, $window=60, $variance=0.05, $mytime=18000, $repetition=0"
attr measurement "$net=video_simple_scenario, $rep=0, $a=1, $F=spr, $ttl=1000, $D=lce, $R=lru_repr, $window=60, $variance=0.05, $mytime=18000"
attr mytime 18000
attr net video_simple_scenario
attr network networks.${net=video_simple_scenario}_network
attr processid 17477
attr rep 0
attr repetition 0
attr replication #0
attr resultdir results
attr runnumber 2
attr seedset 0
attr ttl 1000
attr variance 0.05
attr window 60

vector 0  video_simple_scenario_network.node[0].content_store  hit_node[0]  ETV
0	5866731	1	0.98115769452512
0	5866731	2	0.84493699528345
0	5866731	3	0.69754741476631
0	5866731	4	0.58733718468549
0	5866731	5	0.50600017647578
0	5866731	6	0.44967477338628
0	5866731	7	0.40898593323536
0	5866731	8	0.3725755995829
0	5866731	9	0.34253844068322
0	5866731	10	0.31470757260952
0	5866731	11	0.30337841112888
0	5866731	12	0.28234801277688
0	5866731	13	0.26178674351585
0	5866731	14	0.24731722623157
0	5866731	15	0.23562600752284
0	5866731	16	0.22156734337481
0	5866731	17	0.21485163896225
0	5866731	18	0.20469468154957
0	5866731	19	0.20020982689281
0	5866731	20	0.19707765851899
0	5866731	21	0.1825404610103
0	5866731	22	0.17521500362657
0	5866731	23	0.16345836541635
0	5866731	24	0.16315017488435
0	5866731	25	0.15675738815559
0	5866731	26	0.15289873102762
0	5866731	27	0.14998086978702
0	5866731	28	0.14491001880204
0	5866731	29	0.14491571506253
0	5866731	30	0.1333717413222
0	5866731	31	0.14033526183059
0	5866731	32	0.12709757613424
0	5866731	33	0.12541567695962
0	5866731	34	0.12244897959184
0	5866731	35	0.12549356223176
0	5866731	36	0.11761594075119
0	5866731	37	0.11532925512774
0	5866731	38	0.11261261261261
0	5866731	39	0.11415075772486
0	5866731	40	0.11164304864037
0	5866731	41	0.10703425907156
0	5866731	42	0.10344133628497
0	5866731	43	0.10346283783784
0	5866731	44	0.10801687763713
0	5866731	45	0.10186832740214
0	5866731	46	0.094938185211103
0	5866731	47	0.091700943624486
0	5866731	48	0.095536791314837
0	5866731	49	0.089140605762128
0	5866731	50	0.091937069813176
0	5866731	51	0.094339622641509
0	5866731	52	0.0872660163459
0	5866731	53	0.080205238995409
0	5866731	54	0.08393152954169
0	5866731	55	0.086293007769145
0	5866731	56	0.073891625615764
0	5866731	57	0.077099455431356
0	5866731	58	0.073148974130241
0	5866731	59	0.077626918536009
0	5866731	60	0.074962063732929
0	5866731	61	0.078725398313027
0	5866731	62	0.07
0	5866731	63	0.07875281260045
0	5866731	64	0.073775773195876
0	5866731	65	0.073403554970375
0	5866731	66	0.070603761134939
0	5866731	67	0.074324324324324
0	5866731	68	0.06576670128072
0	5866731	69	0.062718990889979
0	5866731	70	0.070909090909091
0	5866731	71	0.067094932191292
0	5866731	72	0.058287795992714
0	5866731	73	0.069948186528497
0	5866731	74	0.056486170627191
0	5866731	75	0.06477889837083
0	5866731	76	0.066404715127701
vector 1  video_simple_scenario_network.node[0].proactive_component  hdistance[0].proactive_component  ETV
1	5866731	1	1
1	5866731	2	1
1	5866731	3	1
1	5866731	4	1
1	5866731	5	1
1	5866731	6	1
1	5866731	7	1
1	5866731	8	1
1	5866731	9	1
1	5866731	10	1
1	5866731	11	1
1	5866731	12	1
1	5866731	13	1
1	5866731	14	1
1	5866731	15	1
1	5866731	16	1
1	5866731	17	1
1	5866731	18	1
1	5866731	19	1
1	5866731	20	1
1	5866731	21	1
1	5866731	22	1
1	5866731	23	1
1	5866731	24	1
1	5866731	25	1
1	5866731	26	1
1	5866731	27	1
1	5866731	28	1
1	5866731	29	1
1	5866731	30	1
1	5866731	31	1
1	5866731	32	1
1	5866731	33	1
1	5866731	34	1
1	5866731	35	1
1	5866731	36	1
1	5866731	37	1
1	5866731	38	1
1	5866731	39	1
1	5866731	40	1
1	5866731	41	1
1	5866731	42	1
1	5866731	43	1
1	5866731	44	1
1	5866731	45	1
1	5866731	46	1
1	5866731	47	1
1	5866731	48	1
1	5866731	49	1
1	5866731	50	1
1	5866731	51	1
1	5866731	52	1
1	5866731	53	1
1	5866731	54	1
1	5866731	55	1
1	5866731	56	1
1	5866731	57	1
1	5866731	58	1
1	5866731	59	1
1	5866731	60	1
1	5866731	61	1
1	5866731	62	1
1	5866731	63	1
1	5866731	64	1
1	5866731	65	1
1	5866731	66	1
1	5866731	67	1
1	5866731	68	1
1	5866731	69	1
1	5866731	70	1
1	5866731	71	1
1	5866731	72	1
1	5866731	73	1
1	5866731	74	1
1	5866731	75	1
1	5866731	76	1
vector 2  video_simple_scenario_network.client[0]  hdistance[0].real  ETV
2	5866731	1	0.0095457734796113
2	5866731	2	0.086750942945032
2	5866731	3	0.19124672774869
2	5866731	4	0.28843436868303
2	5866731	5	0.37130327531862
2	5866731	6	0.43595792784823
2	5866731	7	0.48655772272008
2	5866731	8	0.53181917449225
2	5866731	9	0.57030414925663
2	5866731	10	0.60817876603005
2	5866731	11	0.62460265099262
2	5866731	12	0.65077720207254
2	5866731	13	0.67930523194238
2	5866731	14	0.69991624152897
2	5866731	15	0.71451822916667
2	5866731	16	0.73413079542478
2	5866731	17	0.74267373709182
2	5866731	18	0.75732217573222
2	5866731	19	0.7630380794702
2	5866731	20	0.76690847023682
2	5866731	21	0.78616568999196
2	5866731	22	0.7961422543701
2	5866731	23	0.81038662753605
2	5866731	24	0.81125179480486
2	5866731	25	0.81955089417776
2	5866731	26	0.82482896237172
2	5866731	27	0.82847141190198
2	5866731	28	0.83501529051988
2	5866731	29	0.83452343992549
2	5866731	30	0.84945537311006
2	5866731	31	0.84079434533827
2	5866731	32	0.8576400974591
2	5866731	33	0.8592
2	5866731	34	0.86295818751151
2	5866731	35	0.85901639344262
2	5866731	36	0.86908734052993
2	5866731	37	0.87159455128205
2	5866731	38	0.87505206164098
2	5866731	39	0.87308533916849
2	5866731	40	0.8760365724006
2	5866731	41	0.88172043010753
2	5866731	42	0.88582852065749
2	5866731	43	0.88586070347077
2	5866731	44	0.88026192703461
2	5866731	45	0.88782757776145
2	5866731	46	0.89643765903308
2	5866731	47	0.89992078162134
2	5866731	48	0.89537648612946
2	5866731	49	0.90302705598714
2	5866731	50	0.89978563772776
2	5866731	51	0.89676339285714
2	5866731	52	0.90545558411882
2	5866731	53	0.91348674628605
2	5866731	54	0.90903650508677
2	5866731	55	0.90635350797952
2	5866731	56	0.92068429237947
2	5866731	57	0.91687268232386
2	5866731	58	0.9217308304168
2	5866731	59	0.91642834445504
2	5866731	60	0.91930741587716
2	5866731	61	0.91509433962264
2	5866731	62	0.92503346720214
2	5866731	63	0.9149010072942
2	5866731	64	0.92073381793008
2	5866731	65	0.92125706214689
2	5866731	66	0.92448835568102
2	5866731	67	0.92017416545718
2	5866731	68	0.93012136815006
2	5866731	69	0.9333084947839
2	5866731	70	0.92438929817759
2	5866731	71	0.92843547773125
2	5866731	72	0.93839045051983
2	5866731	73	0.92520775623269
2	5866731	74	0.94025545941492
2	5866731	75	0.93102023957043
2	5866731	76	0.92919983242564
