file 463847978 1397827423                                       
version 2
run General-190-20140418-15:22:05-1772
attr D costprob0.1
attr F nrr
attr R lru
attr a 0.8
attr configname General
attr csize 10
attr ctlg 10^8
attr datetime 20140418-15:22:05
attr experiment General
attr inifile omnetpp.ini
attr iterationvars "$net=simple_scenario, $rep=1, $priceratiovalue=9, $a=0.8, $ctlg=10^8, $F=nrr, $ttl=1000, $D=costprob0.1, $R=lru, $csize=10"
attr iterationvars2 "$net=simple_scenario, $rep=1, $priceratiovalue=9, $a=0.8, $ctlg=10^8, $F=nrr, $ttl=1000, $D=costprob0.1, $R=lru, $csize=10, $repetition=0"
attr measurement "$net=simple_scenario, $rep=1, $priceratiovalue=9, $a=0.8, $ctlg=10^8, $F=nrr, $ttl=1000, $D=costprob0.1, $R=lru, $csize=10"
attr net simple_scenario
attr network networks.${net=simple_scenario}_network
attr priceratiovalue 9
attr processid 1772
attr rep 1
attr repetition 0
attr replication #0
attr resultdir results
attr runnumber 190
attr seedset 1
attr ttl 1000

vector 0  simple_scenario_network.node[0].content_store  hit_node[0]  ETV
0	997 15138945 1329471 1329471 1 699051 699051 0 0.33333333333333 -nan -nan
0	15139942 15747189 1329471 1329471 699052 1398102 699051 0 0 -nan -nan
0	30887131 16059201 1329471 1329471 1398103 2097153 699051 0 0 -nan -nan
0	46946332 16063323 1329471 1329471 2097154 2796204 699051 0 0 -nan -nan
0	63009655 15927057 1329471 1329471 2796205 3489213 693009 0 0 -nan -nan
vector 1  simple_scenario_network.node[1].content_store  hit_node[1]  ETV
1	78936786 15202929 1329471 1329471 1 699051 699051 0 0.33226837060703 -nan -nan
1	94139715 15762108 1329471 1329471 699052 1398102 699051 0 0 -nan -nan
1	109901823 16068636 1329471 1329471 1398103 2097153 699051 0 0 -nan -nan
1	125970459 16070514 1329471 1329471 2097154 2796204 699051 0 0 -nan -nan
1	142040973 15933393 1329471 1329471 2796205 3489213 693009 0 0 -nan -nan
vector 2  simple_scenario_network.node[2].content_store  hit_node[2]  ETV
2	157974440 15204188 1329471 1329471 1 699051 699051 0 0.25 -nan -nan
2	173178628 15762306 1329471 1329471 699052 1398102 699051 0 0 -nan -nan
2	188940934 16068738 1329471 1329471 1398103 2097153 699051 0 0 -nan -nan
2	205009672 16070982 1329471 1329471 2097154 2796204 699051 0 0 -nan -nan
2	221080654 15932871 1329471 1329471 2796205 3489213 693009 0 0 -nan -nan
vector 3  simple_scenario_network.node[3].content_store  hit_node[3]  ETV
3	237013599 15202701 1329471 1329471 1 699051 699051 0 0 -nan -nan
3	252216300 15762108 1329471 1329471 699052 1398102 699051 0 0 -nan -nan
3	267978408 16068636 1329471 1329471 1398103 2097153 699051 0 0 -nan -nan
3	284047044 16070514 1329471 1329471 2097154 2796204 699051 0 0 -nan -nan
3	300117558 15933393 1329471 1329471 2796205 3489213 693009 0 0 -nan -nan
vector 4  simple_scenario_network.node[4].content_store  hit_node[4]  ETV
4	316051025 15203928 1329471 1329471 1 699051 699051 0 0 -nan -nan
4	331254953 15762306 1329471 1329471 699052 1398102 699051 0 0 -nan -nan
4	347017259 16068738 1329471 1329471 1398103 2097153 699051 0 0 -nan -nan
4	363085997 16070982 1329471 1329471 2097154 2796204 699051 0 0 -nan -nan
4	379156979 15932871 1329471 1329471 2796205 3489213 693009 0 0 -nan -nan
vector 5  simple_scenario_network.client[0]  hdistance[0]  ETV
5	395089913 13253908 1329471 1329471 1 699051 699051 0 3 129377.30691896 388049.36757747
5	408343821 13681168 1329471 1329471 699052 1398102 699051 0 3 30035.709578971 90106.25854528
5	422024989 13981347 1329471 1329471 1398103 2097153 699051 0 3 18971.9122857 56915.474041407
5	436006336 13981266 1329471 1329471 2097154 2796204 699051 0 3 14849.936220707 44549.61755187
5	449987602 13860376 1329471 1329471 2796205 3489213 693009 0 3 12149.947795353 36449.686966955
