version 2
run General-5-20140101-23:33:31-24991
attr D lce
attr F spr
attr R lru
attr a 1
attr configname General
attr csize 10^3
attr datetime 20140101-23:33:31
attr experiment General
attr inifile omnetpp.ini
attr iterationvars "$net=simple_scenario_cache_in_the_core, $rep=0, $a=1, $F=spr, $ttl=1000, $D=lce, $R=lru, $csize=10^3"
attr iterationvars2 "$net=simple_scenario_cache_in_the_core, $rep=0, $a=1, $F=spr, $ttl=1000, $D=lce, $R=lru, $csize=10^3, $repetition=0"
attr measurement "$net=simple_scenario_cache_in_the_core, $rep=0, $a=1, $F=spr, $ttl=1000, $D=lce, $R=lru, $csize=10^3"
attr net simple_scenario_cache_in_the_core
attr network networks.${net=simple_scenario_cache_in_the_core,simple_scenario_cache_at_border}_network
attr processid 24991
attr rep 0
attr repetition 0
attr replication #0
attr resultdir results
attr runnumber 5
attr seedset 0
attr ttl 1000

vector 30  simple_scenario_cache_in_the_core_network.node[0].content_store  hit_node[0]  ETV
30	1025045	1	1
30	1025045	2	1
30	1025045	3	1
30	1025045	4	1
30	1025045	5	1
30	1025045	6	1
30	1025045	7	1
30	1025045	8	1
30	1025045	9	1
30	1025045	10	1
30	1025045	11	1
30	1025045	12	0.9990574929312
30	1025045	13	1
30	1025045	14	0.99888143176734
30	1025045	15	1
30	1025045	16	0.99876084262701
30	1025045	17	0.99739583333333
30	1025045	18	1
30	1025045	19	0.99521531100478
30	1025045	20	0.9983844911147
30	1025045	21	0.99236641221374
30	1025045	22	0.98876404494382
30	1025045	23	0.99099099099099
30	1025045	24	0.98659003831418
30	1025045	25	0.99211045364892
30	1025045	26	0.98709677419355
30	1025045	27	0.99367088607595
30	1025045	28	0.96651785714286
30	1025045	29	0.9726368159204
30	1025045	30	0.98181818181818
30	1025045	31	0.96875
30	1025045	32	0.96190476190476
30	1025045	33	0.95275590551181
30	1025045	34	0.94871794871795
30	1025045	35	0.95251396648045
30	1025045	36	0.94224924012158
30	1025045	37	0.92638036809816
30	1025045	38	0.94011976047904
30	1025045	39	0.92523364485981
30	1025045	40	0.92207792207792
30	1025045	41	0.93269230769231
30	1025045	42	0.95192307692308
30	1025045	43	0.91695501730104
30	1025045	44	0.91039426523297
30	1025045	45	0.89788732394366
30	1025045	46	0.88686131386861
30	1025045	47	0.89377289377289
30	1025045	48	0.87003610108303
30	1025045	49	0.85714285714286
30	1025045	50	0.87012987012987
30	1025045	51	0.91050583657588
30	1025045	52	0.85308056872038
30	1025045	53	0.85398230088496
30	1025045	54	0.85897435897436
30	1025045	55	0.8287037037037
30	1025045	56	0.81642512077295
30	1025045	57	0.85116279069767
30	1025045	58	0.82159624413146
30	1025045	59	0.85972850678733
30	1025045	60	0.81395348837209
30	1025045	61	0.79166666666667
30	1025045	62	0.80412371134021
30	1025045	63	0.80927835051546
30	1025045	64	0.81944444444444
30	1025045	65	0.78021978021978
30	1025045	66	0.80099502487562
30	1025045	67	0.79896907216495
30	1025045	68	0.80099502487562
30	1025045	69	0.82010582010582
30	1025045	70	0.78723404255319
30	1025045	71	0.75
30	1025045	72	0.79057591623037
30	1025045	73	0.79459459459459
30	1025045	74	0.75903614457831
30	1025045	75	0.78453038674033
30	1025045	76	0.76219512195122
30	1025045	77	0.80571428571429
30	1025045	78	0.72049689440994
30	1025045	79	0.74522292993631
30	1025045	80	0.72666666666667
30	1025045	81	0.71140939597315
30	1025045	82	0.65
30	1025045	83	0.71812080536913
30	1025045	84	0.71875
30	1025045	85	0.65891472868217
30	1025045	86	0.70547945205479
30	1025045	87	0.73076923076923
30	1025045	88	0.67692307692308
30	1025045	89	0.64166666666667
30	1025045	90	0.68531468531469
30	1025045	91	0.67625899280576
30	1025045	92	0.70860927152318
30	1025045	93	0.66141732283465
30	1025045	94	0.6875
30	1025045	95	0.61788617886179
30	1025045	96	0.68939393939394
30	1025045	97	0.69767441860465
30	1025045	98	0.65625
30	1025045	99	0.70394736842105
30	1025045	100	0.73584905660377
30	1025045	101	0.69172932330827
30	1025045	102	0.65546218487395
30	1025045	103	0.68253968253968
30	1025045	104	0.60747663551402
30	1025045	105	0.64655172413793
30	1025045	106	0.67910447761194
30	1025045	107	0.65420560747664
30	1025045	108	0.62931034482759
30	1025045	109	0.69166666666667
30	1025045	110	0.53921568627451
30	1025045	111	0.59649122807018
30	1025045	112	0.60576923076923
30	1025045	113	0.66165413533835
30	1025045	114	0.60169491525424
30	1025045	115	0.65573770491803
30	1025045	116	0.52173913043478
30	1025045	117	0.53260869565217
30	1025045	118	0.53763440860215
30	1025045	119	0.55789473684211
30	1025045	120	0.58333333333333
30	1025045	121	0.47191011235955
30	1025045	122	0.43373493975904
30	1025045	123	0.53684210526316
30	1025045	124	0.63865546218487
30	1025045	125	0.5981308411215
30	1025045	126	0.52083333333333
30	1025045	127	0.58490566037736
30	1025045	128	0.57627118644068
30	1025045	129	0.53191489361702
30	1025045	130	0.47674418604651
30	1025045	131	0.57798165137615
30	1025045	132	0.54205607476636
30	1025045	133	0.58715596330275
30	1025045	134	0.62
30	1025045	135	0.59090909090909
30	1025045	136	0.51851851851852
30	1025045	137	0.52747252747253
30	1025045	138	0.54285714285714
30	1025045	139	0.47872340425532
30	1025045	140	0.47126436781609
30	1025045	141	0.54838709677419
30	1025045	142	0.51515151515152
30	1025045	143	0.45588235294118
30	1025045	144	0.5
30	1025045	145	0.55952380952381
30	1025045	146	0.52272727272727
30	1025045	147	0.48148148148148
30	1025045	148	0.5
30	1025045	149	0.45454545454545
30	1025045	150	0.48101265822785
30	1025045	151	0.48192771084337
30	1025045	152	0.53684210526316
30	1025045	153	0.56470588235294
30	1025045	154	0.52564102564103
30	1025045	155	0.54117647058824
30	1025045	156	0.45454545454545
30	1025045	157	0.40677966101695
30	1025045	158	0.44927536231884
30	1025045	159	0.51851851851852
30	1025045	160	0.41666666666667
30	1025045	161	0.48101265822785
30	1025045	162	0.47297297297297
30	1025045	163	0.42465753424658
30	1025045	164	0.44594594594595
30	1025045	165	0.51764705882353
30	1025045	166	0.37313432835821
30	1025045	167	0.44776119402985
30	1025045	168	0.3943661971831
30	1025045	169	0.515625
30	1025045	170	0.50649350649351
30	1025045	171	0.3728813559322
30	1025045	172	0.43661971830986
30	1025045	173	0.34328358208955
30	1025045	174	0.38571428571429
30	1025045	175	0.38461538461538
30	1025045	176	0.50704225352113
30	1025045	177	0.51219512195122
30	1025045	178	0.47297297297297
30	1025045	179	0.3968253968254
30	1025045	180	0.45161290322581
30	1025045	181	0.42666666666667
30	1025045	182	0.38709677419355
30	1025045	183	0.41666666666667
30	1025045	184	0.42682926829268
30	1025045	185	0.40298507462687
30	1025045	186	0.40540540540541
30	1025045	187	0.44155844155844
30	1025045	188	0.47368421052632
30	1025045	189	0.40350877192982
30	1025045	190	0.35714285714286
30	1025045	191	0.47297297297297
30	1025045	192	0.45945945945946
30	1025045	193	0.41666666666667
30	1025045	194	0.46052631578947
30	1025045	195	0.43076923076923
30	1025045	196	0.44067796610169
30	1025045	197	0.359375
30	1025045	198	0.3968253968254
30	1025045	199	0.4
30	1025045	200	0.46153846153846
30	1025045	201	0.37254901960784
30	1025045	202	0.40298507462687
30	1025045	203	0.43103448275862
30	1025045	204	0.37735849056604
30	1025045	205	0.41269841269841
30	1025045	206	0.34782608695652
30	1025045	207	0.45901639344262
30	1025045	208	0.43636363636364
30	1025045	209	0.5
30	1025045	210	0.33333333333333
30	1025045	211	0.32203389830508
30	1025045	212	0.37096774193548
30	1025045	213	0.38983050847458
30	1025045	214	0.35593220338983
30	1025045	215	0.29166666666667
30	1025045	216	0.36666666666667
30	1025045	217	0.375
30	1025045	218	0.28571428571429
30	1025045	219	0.38095238095238
30	1025045	220	0.41666666666667
30	1025045	221	0.28888888888889
30	1025045	222	0.2
30	1025045	223	0.36206896551724
30	1025045	224	0.45454545454545
30	1025045	225	0.33333333333333
30	1025045	226	0.453125
30	1025045	227	0.33898305084746
30	1025045	228	0.40350877192982
30	1025045	229	0.35849056603774
30	1025045	230	0.35
30	1025045	231	0.36363636363636
30	1025045	232	0.23076923076923
30	1025045	233	0.24
30	1025045	234	0.4
30	1025045	235	0.38297872340426
30	1025045	236	0.31481481481481
30	1025045	237	0.42372881355932
30	1025045	238	0.41818181818182
30	1025045	239	0.30769230769231
30	1025045	240	0.3469387755102
30	1025045	241	0.4
30	1025045	242	0.25
30	1025045	243	0.3469387755102
30	1025045	244	0.39285714285714
30	1025045	245	0.23255813953488
30	1025045	246	0.37777777777778
30	1025045	247	0.34782608695652
30	1025045	248	0.40740740740741
30	1025045	249	0.30952380952381
30	1025045	250	0.3125
30	1025045	251	0.4
30	1025045	252	0.37777777777778
30	1025045	253	0.42307692307692
30	1025045	254	0.3695652173913
30	1025045	255	0.31372549019608
30	1025045	256	0.4
30	1025045	257	0.41071428571429
30	1025045	258	0.29411764705882
30	1025045	259	0.3
30	1025045	260	0.27777777777778
30	1025045	261	0.36585365853659
30	1025045	262	0.34545454545455
30	1025045	263	0.34090909090909
30	1025045	264	0.29787234042553
30	1025045	265	0.42592592592593
30	1025045	266	0.35294117647059
30	1025045	267	0.29090909090909
30	1025045	268	0.32758620689655
30	1025045	269	0.13888888888889
30	1025045	270	0.25
30	1025045	271	0.31818181818182
30	1025045	272	0.38
30	1025045	273	0.41304347826087
30	1025045	274	0.4
30	1025045	275	0.37142857142857
30	1025045	276	0.16666666666667
30	1025045	277	0.30909090909091
30	1025045	278	0.26315789473684
30	1025045	279	0.26829268292683
30	1025045	280	0.28205128205128
30	1025045	281	0.27659574468085
30	1025045	282	0.2
30	1025045	283	0.35849056603774
30	1025045	284	0.325
30	1025045	285	0.18918918918919
30	1025045	286	0.23529411764706
30	1025045	287	0.26190476190476
30	1025045	288	0.25
30	1025045	289	0.23076923076923
30	1025045	290	0.25581395348837
30	1025045	291	0.25714285714286
30	1025045	292	0.32692307692308
30	1025045	293	0.32608695652174
30	1025045	294	0.15789473684211
30	1025045	295	0.30769230769231
30	1025045	296	0.22857142857143
30	1025045	297	0.16129032258065
30	1025045	298	0.21212121212121
30	1025045	299	0.34375
30	1025045	300	0.29411764705882
30	1025045	301	0.35416666666667
30	1025045	302	0.31818181818182
30	1025045	303	0.32352941176471
30	1025045	304	0.33333333333333
30	1025045	305	0.25641025641026
30	1025045	306	0.1
30	1025045	307	0.31818181818182
30	1025045	308	0.36842105263158
30	1025045	309	0.29268292682927
30	1025045	310	0.25714285714286
30	1025045	311	0.36170212765957
30	1025045	312	0.29787234042553
30	1025045	313	0.33333333333333
30	1025045	314	0.24324324324324
30	1025045	315	0.25
30	1025045	316	0.21428571428571
30	1025045	317	0.30555555555556
30	1025045	318	0.2972972972973
30	1025045	319	0.38297872340426
30	1025045	320	0.28947368421053
30	1025045	321	0.25714285714286
30	1025045	322	0.42857142857143
30	1025045	323	0.34210526315789
30	1025045	324	0.28947368421053
30	1025045	325	0.25581395348837
30	1025045	326	0.25641025641026
30	1025045	327	0.28571428571429
30	1025045	328	0.30952380952381
30	1025045	329	0.23529411764706
30	1025045	330	0.24324324324324
30	1025045	331	0.074074074074074
30	1025045	332	0.30769230769231
30	1025045	333	0.31707317073171
30	1025045	334	0.23529411764706
30	1025045	335	0.30555555555556
30	1025045	336	0.20512820512821
30	1025045	337	0.22222222222222
30	1025045	338	0.35849056603774
30	1025045	339	0.28571428571429
30	1025045	340	0.2972972972973
30	1025045	341	0.15151515151515
30	1025045	342	0.24137931034483
30	1025045	343	0.29411764705882
30	1025045	344	0.25
30	1025045	345	0.16666666666667
30	1025045	346	0.11428571428571
30	1025045	347	0.45238095238095
30	1025045	348	0.27027027027027
30	1025045	349	0.19354838709677
30	1025045	350	0.17647058823529
30	1025045	351	0.26666666666667
30	1025045	352	0.22222222222222
30	1025045	353	0.25490196078431
30	1025045	354	0.13333333333333
30	1025045	355	0.30555555555556
30	1025045	356	0.32558139534884
30	1025045	357	0.21212121212121
30	1025045	358	0.17142857142857
30	1025045	359	0.3030303030303
30	1025045	360	0.34285714285714
30	1025045	361	0.30769230769231
30	1025045	362	0.31578947368421
30	1025045	363	0.32558139534884
30	1025045	364	0.21875
30	1025045	365	0.18518518518519
30	1025045	366	0.3030303030303
30	1025045	367	0.38888888888889
30	1025045	368	0.15625
30	1025045	369	0.28205128205128
30	1025045	370	0.19354838709677
30	1025045	371	0.23076923076923
30	1025045	372	0.2258064516129
30	1025045	373	0.23333333333333
30	1025045	374	0.20689655172414
30	1025045	375	0.27586206896552
30	1025045	376	0.18181818181818
30	1025045	377	0.17857142857143
30	1025045	378	0.32352941176471
30	1025045	379	0.26190476190476
30	1025045	380	0.18181818181818
30	1025045	381	0.27777777777778
30	1025045	382	0.2
30	1025045	383	0.083333333333333
30	1025045	384	0.23529411764706
30	1025045	385	0.14285714285714
30	1025045	386	0.25
30	1025045	387	0.071428571428571
30	1025045	388	0.22222222222222
30	1025045	389	0.088235294117647
30	1025045	390	0.17857142857143
30	1025045	391	0.40625
30	1025045	392	0.28125
30	1025045	393	0.21428571428571
30	1025045	394	0.21212121212121
30	1025045	395	0.28571428571429
30	1025045	396	0.20588235294118
30	1025045	397	0.34782608695652
30	1025045	398	0.21428571428571
30	1025045	399	0.15625
30	1025045	400	0.28571428571429
30	1025045	401	0.28947368421053
30	1025045	402	0.16216216216216
30	1025045	403	0.25
30	1025045	404	0.3
30	1025045	405	0.27777777777778
30	1025045	406	0.11111111111111
30	1025045	407	0.15625
30	1025045	408	0.16666666666667
30	1025045	409	0.3
30	1025045	410	0.21951219512195
30	1025045	411	0.19230769230769
30	1025045	412	0.18181818181818
30	1025045	413	0.21875
30	1025045	414	0.10714285714286
30	1025045	415	0.17647058823529
30	1025045	416	0.34285714285714
30	1025045	417	0.11764705882353
30	1025045	418	0.11538461538462
30	1025045	419	0.23333333333333
30	1025045	420	0.34285714285714
30	1025045	421	0.33333333333333
30	1025045	422	0.25806451612903
30	1025045	423	0.22222222222222
30	1025045	424	0.31428571428571
30	1025045	425	0.21212121212121
30	1025045	426	0.16666666666667
30	1025045	427	0.16129032258065
30	1025045	428	0.22222222222222
30	1025045	429	0.31428571428571
30	1025045	430	0.19354838709677
30	1025045	431	0.2
30	1025045	432	0.24
30	1025045	433	0.33333333333333
30	1025045	434	0.24137931034483
30	1025045	435	0.27272727272727
30	1025045	436	0.24
30	1025045	437	0.32258064516129
30	1025045	438	0.23529411764706
30	1025045	439	0.16666666666667
30	1025045	440	0.05
30	1025045	441	0.35294117647059
30	1025045	442	0.20689655172414
30	1025045	443	0.074074074074074
30	1025045	444	0.26923076923077
30	1025045	445	0.16
30	1025045	446	0.19444444444444
30	1025045	447	0.26666666666667
30	1025045	448	0.27586206896552
30	1025045	449	0.21875
30	1025045	450	0.26923076923077
30	1025045	451	0.18518518518519
30	1025045	452	0.125
30	1025045	453	0.16666666666667
30	1025045	454	0.25
30	1025045	455	0.15384615384615
30	1025045	456	0.16666666666667
30	1025045	457	0.22222222222222
30	1025045	458	0.21212121212121
30	1025045	459	0.25
30	1025045	460	0.20588235294118
30	1025045	461	0.05
30	1025045	462	0.28571428571429
30	1025045	463	0.095238095238095
30	1025045	464	0.36363636363636
30	1025045	465	0.18518518518519
30	1025045	466	0
30	1025045	467	0.26923076923077
30	1025045	468	0.40625
30	1025045	469	0.052631578947368
30	1025045	470	0
30	1025045	471	0.27586206896552
30	1025045	472	0.17857142857143
30	1025045	473	0.2
30	1025045	474	0.18518518518519
30	1025045	475	0.045454545454545
30	1025045	476	0.0625
30	1025045	477	0.090909090909091
30	1025045	478	0.17857142857143
30	1025045	479	0.15
30	1025045	480	0.26923076923077
30	1025045	481	0.25806451612903
30	1025045	482	0.14285714285714
30	1025045	483	0.16666666666667
30	1025045	484	0.25
30	1025045	485	0.28571428571429
30	1025045	486	0.090909090909091
30	1025045	487	0.23529411764706
30	1025045	488	0.03125
30	1025045	489	0.17391304347826
30	1025045	490	0.2
30	1025045	491	0.17142857142857
30	1025045	492	0.17391304347826
30	1025045	493	0.25806451612903
30	1025045	494	0.22222222222222
30	1025045	495	0.24137931034483
30	1025045	496	0.12
30	1025045	497	0.13636363636364
30	1025045	498	0.25
30	1025045	499	0.24137931034483
30	1025045	500	0.19230769230769
30	1025045	501	0.096774193548387
30	1025045	502	0.21739130434783
30	1025045	503	0.18518518518519
30	1025045	504	0.23076923076923
30	1025045	505	0.24
30	1025045	506	0.33333333333333
30	1025045	507	0.2
30	1025045	508	0.15
30	1025045	509	0.13793103448276
30	1025045	510	0.074074074074074
30	1025045	511	0.16666666666667
30	1025045	512	0.052631578947368
30	1025045	513	0.090909090909091
30	1025045	514	0.20689655172414
30	1025045	515	0.26470588235294
30	1025045	516	0.043478260869565
30	1025045	517	0.25
30	1025045	518	0.19230769230769
30	1025045	519	0.17647058823529
30	1025045	520	0.14814814814815
30	1025045	521	0.08695652173913
30	1025045	522	0.10714285714286
30	1025045	523	0.15
30	1025045	524	0.21428571428571
30	1025045	525	0.26315789473684
30	1025045	526	0.090909090909091
30	1025045	527	0.2
30	1025045	528	0.11111111111111
30	1025045	529	0.041666666666667
30	1025045	530	0.26470588235294
30	1025045	531	0.058823529411765
30	1025045	532	0.25806451612903
30	1025045	533	0.18518518518519
30	1025045	534	0.25
30	1025045	535	0.08695652173913
30	1025045	536	0.21428571428571
30	1025045	537	0.125
30	1025045	538	0.16666666666667
30	1025045	539	0.18181818181818
30	1025045	540	0.20833333333333
30	1025045	541	0.083333333333333
30	1025045	542	0.11111111111111
30	1025045	543	0.32432432432432
30	1025045	544	0.16666666666667
30	1025045	545	0.2258064516129
30	1025045	546	0.22727272727273
30	1025045	547	0.15
30	1025045	548	0.24137931034483
30	1025045	549	0.16666666666667
30	1025045	550	0.11111111111111
30	1025045	551	0.28571428571429
30	1025045	552	0.11764705882353
30	1025045	553	0.21052631578947
30	1025045	554	0.22727272727273
30	1025045	555	0
30	1025045	556	0.11111111111111
30	1025045	557	0.16
30	1025045	558	0.125
30	1025045	559	0.16666666666667
30	1025045	560	0.15789473684211
30	1025045	561	0.08
30	1025045	562	0.11538461538462
30	1025045	563	0.23076923076923
30	1025045	564	0.28571428571429
30	1025045	565	0.11764705882353
30	1025045	566	0.25
30	1025045	567	0.13636363636364
30	1025045	568	0.13636363636364
30	1025045	569	0.066666666666667
30	1025045	570	0.10526315789474
30	1025045	571	0.043478260869565
30	1025045	572	0
30	1025045	573	0.2258064516129
30	1025045	574	0.05
30	1025045	575	0.28571428571429
30	1025045	576	0.16666666666667
30	1025045	577	0.052631578947368
30	1025045	578	0.21428571428571
30	1025045	579	0.25806451612903
30	1025045	580	0.35294117647059
30	1025045	581	0.045454545454545
30	1025045	582	0.31578947368421
30	1025045	583	0.31818181818182
30	1025045	584	0.25
30	1025045	585	0.3
30	1025045	586	0.11764705882353
30	1025045	587	0.2
30	1025045	588	0.2
30	1025045	589	0.052631578947368
30	1025045	590	0.3
30	1025045	591	0.052631578947368
30	1025045	592	0.25
30	1025045	593	0.25
30	1025045	594	0.14285714285714
30	1025045	595	0.16
30	1025045	596	0.19047619047619
30	1025045	597	0.14285714285714
30	1025045	598	0.17391304347826
30	1025045	599	0.14285714285714
30	1025045	600	0.19047619047619
30	1025045	601	0.15
30	1025045	602	0.2
30	1025045	603	0.17391304347826
30	1025045	604	0.071428571428571
30	1025045	605	0.11764705882353
30	1025045	606	0.125
30	1025045	607	0.16666666666667
30	1025045	608	0.23529411764706
30	1025045	609	0.18181818181818
30	1025045	610	0.055555555555556
30	1025045	611	0.11764705882353
30	1025045	612	0.30769230769231
30	1025045	613	0.095238095238095
30	1025045	614	0.11111111111111
30	1025045	615	0.066666666666667
30	1025045	616	0.15789473684211
30	1025045	617	0.34210526315789
30	1025045	618	0
30	1025045	619	0.22727272727273
30	1025045	620	0.18181818181818
30	1025045	621	0.19047619047619
30	1025045	622	0.125
30	1025045	623	0.083333333333333
30	1025045	624	0.1875
30	1025045	625	0
30	1025045	626	0.22222222222222
30	1025045	627	0.16666666666667
30	1025045	628	0
30	1025045	629	0.090909090909091
30	1025045	630	0.14285714285714
30	1025045	631	0.047619047619048
30	1025045	632	0.095238095238095
30	1025045	633	0.25
30	1025045	634	0.16666666666667
30	1025045	635	0.052631578947368
30	1025045	636	0.17647058823529
30	1025045	637	0.05
30	1025045	638	0.19230769230769
30	1025045	639	0.21428571428571
30	1025045	640	0.23076923076923
30	1025045	641	0.11111111111111
30	1025045	642	0.30434782608696
30	1025045	643	0.090909090909091
30	1025045	644	0.23809523809524
30	1025045	645	0
30	1025045	646	0.071428571428571
30	1025045	647	0.21739130434783
30	1025045	648	0.090909090909091
30	1025045	649	0.2
30	1025045	650	0
30	1025045	651	0.18181818181818
30	1025045	652	0.076923076923077
30	1025045	653	0.125
30	1025045	654	0.18181818181818
30	1025045	655	0.08695652173913
30	1025045	656	0.1
30	1025045	657	0.17391304347826
30	1025045	658	0.21739130434783
30	1025045	659	0.2
30	1025045	660	0.23333333333333
30	1025045	661	0
30	1025045	662	0.076923076923077
30	1025045	663	0.16666666666667
30	1025045	664	0
30	1025045	665	0.2
30	1025045	666	0.19230769230769
30	1025045	667	0.095238095238095
30	1025045	668	0.22222222222222
30	1025045	669	0.047619047619048
30	1025045	670	0.22727272727273
30	1025045	671	0.11111111111111
30	1025045	672	0.1
30	1025045	673	0.12
30	1025045	674	0.04
30	1025045	675	0.25
30	1025045	676	0.16666666666667
30	1025045	677	0.15
30	1025045	678	0.11764705882353
30	1025045	679	0.18518518518519
30	1025045	680	0.058823529411765
30	1025045	681	0.0625
30	1025045	682	0.1
30	1025045	683	0.090909090909091
30	1025045	684	0.19047619047619
30	1025045	685	0.066666666666667
30	1025045	686	0.125
30	1025045	687	0.095238095238095
30	1025045	688	0.1304347826087
30	1025045	689	0.066666666666667
30	1025045	690	0
30	1025045	691	0.15789473684211
30	1025045	692	0.1875
30	1025045	693	0.21052631578947
30	1025045	694	0.1
30	1025045	695	0.14285714285714
30	1025045	696	0
30	1025045	697	0.19047619047619
30	1025045	698	0.047619047619048
30	1025045	699	0.26086956521739
30	1025045	700	0.13333333333333
30	1025045	701	0.058823529411765
30	1025045	702	0.15
30	1025045	703	0.1875
30	1025045	704	0.14285714285714
30	1025045	705	0.26666666666667
30	1025045	706	0.11764705882353
30	1025045	707	0.055555555555556
30	1025045	708	0.23529411764706
30	1025045	709	0.11111111111111
30	1025045	710	0.25
30	1025045	711	0.21428571428571
30	1025045	712	0.17647058823529
30	1025045	713	0.17647058823529
30	1025045	714	0.066666666666667
30	1025045	715	0.125
30	1025045	716	0.090909090909091
30	1025045	717	0.17647058823529
30	1025045	718	0.11111111111111
30	1025045	719	0.31818181818182
30	1025045	720	0.22222222222222
30	1025045	721	0.11111111111111
30	1025045	722	0.25
30	1025045	723	0.17647058823529
30	1025045	724	0.058823529411765
30	1025045	725	0.11111111111111
30	1025045	726	0.2
30	1025045	727	0.10526315789474
30	1025045	728	0.083333333333333
30	1025045	729	0
30	1025045	730	0.17647058823529
30	1025045	731	0.14285714285714
30	1025045	732	0.13333333333333
30	1025045	733	0.15789473684211
30	1025045	734	0.071428571428571
30	1025045	735	0.066666666666667
30	1025045	736	0.15
30	1025045	737	0.052631578947368
30	1025045	738	0.0625
30	1025045	739	0.11111111111111
30	1025045	740	0.22222222222222
30	1025045	741	0
30	1025045	742	0.26666666666667
30	1025045	743	0.05
30	1025045	744	0
30	1025045	745	0.18181818181818
30	1025045	746	0.14285714285714
30	1025045	747	0.058823529411765
30	1025045	748	0.08
30	1025045	749	0.1
30	1025045	750	0.0625
vector 31  simple_scenario_cache_in_the_core_network.node[1].content_store  hit_node[1]  ETV
31	1025045	1	-nan
31	1025045	2	-nan
31	1025045	3	-nan
31	1025045	4	-nan
31	1025045	5	-nan
31	1025045	6	-nan
31	1025045	7	-nan
31	1025045	8	-nan
31	1025045	9	-nan
31	1025045	10	-nan
31	1025045	11	-nan
31	1025045	12	0
31	1025045	13	-nan
31	1025045	14	-nan
31	1025045	15	-nan
31	1025045	16	0
31	1025045	17	0
31	1025045	18	-nan
31	1025045	19	0
31	1025045	20	-nan
31	1025045	21	0
31	1025045	22	-nan
31	1025045	23	-nan
31	1025045	24	0
31	1025045	25	0
31	1025045	26	-nan
31	1025045	27	-nan
31	1025045	28	-nan
31	1025045	29	-nan
31	1025045	30	0
31	1025045	31	-nan
31	1025045	32	0
31	1025045	33	-nan
31	1025045	34	0
31	1025045	35	-nan
31	1025045	36	-nan
31	1025045	37	0
31	1025045	38	-nan
31	1025045	39	-nan
31	1025045	40	0
31	1025045	41	0
31	1025045	42	-nan
31	1025045	43	0
31	1025045	44	-nan
31	1025045	45	-nan
31	1025045	46	-nan
31	1025045	47	-nan
31	1025045	48	-nan
31	1025045	49	0
31	1025045	50	-nan
31	1025045	51	0
31	1025045	52	-nan
31	1025045	53	-nan
31	1025045	54	-nan
31	1025045	55	-nan
31	1025045	56	0
31	1025045	57	-nan
31	1025045	58	0
31	1025045	59	0
31	1025045	60	-nan
31	1025045	61	-nan
31	1025045	62	0
31	1025045	63	-nan
31	1025045	64	0
31	1025045	65	-nan
31	1025045	66	0
31	1025045	67	0
31	1025045	68	0
31	1025045	69	0
31	1025045	70	0
31	1025045	71	-nan
31	1025045	72	-nan
31	1025045	73	0
31	1025045	74	0
31	1025045	75	0
31	1025045	76	-nan
31	1025045	77	-nan
31	1025045	78	0
31	1025045	79	-nan
31	1025045	80	0
31	1025045	81	0
31	1025045	82	-nan
31	1025045	83	0
31	1025045	84	-nan
31	1025045	85	-nan
31	1025045	86	-nan
31	1025045	87	-nan
31	1025045	88	-nan
31	1025045	89	-nan
31	1025045	90	0
31	1025045	91	-nan
31	1025045	92	-nan
31	1025045	93	0
31	1025045	94	0
31	1025045	95	-nan
31	1025045	96	0
31	1025045	97	0
31	1025045	98	-nan
31	1025045	99	-nan
31	1025045	100	0
31	1025045	101	-nan
31	1025045	102	0
31	1025045	103	0
31	1025045	104	-nan
31	1025045	105	0
31	1025045	106	0
31	1025045	107	0
31	1025045	108	-nan
31	1025045	109	-nan
31	1025045	110	0
31	1025045	111	-nan
31	1025045	112	0
31	1025045	113	0
31	1025045	114	0
31	1025045	115	0
31	1025045	116	0
31	1025045	117	-nan
31	1025045	118	0
31	1025045	119	-nan
31	1025045	120	0
31	1025045	121	-nan
31	1025045	122	-nan
31	1025045	123	-nan
31	1025045	124	-nan
31	1025045	125	-nan
31	1025045	126	0
31	1025045	127	-nan
31	1025045	128	-nan
31	1025045	129	-nan
31	1025045	130	-nan
31	1025045	131	0
31	1025045	132	-nan
31	1025045	133	-nan
31	1025045	134	0
31	1025045	135	0
31	1025045	136	-nan
31	1025045	137	0
31	1025045	138	0
31	1025045	139	0
31	1025045	140	0
31	1025045	141	-nan
31	1025045	142	-nan
31	1025045	143	0
31	1025045	144	0
31	1025045	145	-nan
31	1025045	146	0
31	1025045	147	-nan
31	1025045	148	-nan
31	1025045	149	-nan
31	1025045	150	-nan
31	1025045	151	0
31	1025045	152	0
31	1025045	153	0
31	1025045	154	-nan
31	1025045	155	0
31	1025045	156	-nan
31	1025045	157	-nan
31	1025045	158	-nan
31	1025045	159	0
31	1025045	160	-nan
31	1025045	161	0
31	1025045	162	0
31	1025045	163	-nan
31	1025045	164	0
31	1025045	165	-nan
31	1025045	166	-nan
31	1025045	167	0
31	1025045	168	0
31	1025045	169	-nan
31	1025045	170	0
31	1025045	171	-nan
31	1025045	172	0
31	1025045	173	-nan
31	1025045	174	0
31	1025045	175	-nan
31	1025045	176	0
31	1025045	177	-nan
31	1025045	178	0
31	1025045	179	0
31	1025045	180	0
31	1025045	181	-nan
31	1025045	182	0
31	1025045	183	-nan
31	1025045	184	0
31	1025045	185	-nan
31	1025045	186	0
31	1025045	187	0
31	1025045	188	0
31	1025045	189	0
31	1025045	190	0
31	1025045	191	-nan
31	1025045	192	0
31	1025045	193	0
31	1025045	194	-nan
31	1025045	195	0
31	1025045	196	0
31	1025045	197	0
31	1025045	198	-nan
31	1025045	199	0
31	1025045	200	0
31	1025045	201	-nan
31	1025045	202	0
31	1025045	203	-nan
31	1025045	204	0
31	1025045	205	0
31	1025045	206	-nan
31	1025045	207	-nan
31	1025045	208	0
31	1025045	209	0
31	1025045	210	0
31	1025045	211	-nan
31	1025045	212	-nan
31	1025045	213	0
31	1025045	214	0
31	1025045	215	0
31	1025045	216	0
31	1025045	217	0
31	1025045	218	-nan
31	1025045	219	0
31	1025045	220	-nan
31	1025045	221	0
31	1025045	222	0
31	1025045	223	0
31	1025045	224	-nan
31	1025045	225	-nan
31	1025045	226	-nan
31	1025045	227	0
31	1025045	228	0
31	1025045	229	-nan
31	1025045	230	-nan
31	1025045	231	-nan
31	1025045	232	-nan
31	1025045	233	0
31	1025045	234	0
31	1025045	235	0
31	1025045	236	-nan
31	1025045	237	-nan
31	1025045	238	0
31	1025045	239	-nan
31	1025045	240	0
31	1025045	241	0
31	1025045	242	-nan
31	1025045	243	0
31	1025045	244	-nan
31	1025045	245	-nan
31	1025045	246	-nan
31	1025045	247	-nan
31	1025045	248	0
31	1025045	249	0
31	1025045	250	0
31	1025045	251	-nan
31	1025045	252	-nan
31	1025045	253	-nan
31	1025045	254	0
31	1025045	255	-nan
31	1025045	256	-nan
31	1025045	257	-nan
31	1025045	258	-nan
31	1025045	259	0
31	1025045	260	0
31	1025045	261	-nan
31	1025045	262	-nan
31	1025045	263	0
31	1025045	264	0
31	1025045	265	0
31	1025045	266	-nan
31	1025045	267	-nan
31	1025045	268	0
31	1025045	269	-nan
31	1025045	270	-nan
31	1025045	271	-nan
31	1025045	272	-nan
31	1025045	273	-nan
31	1025045	274	0
31	1025045	275	0
31	1025045	276	0
31	1025045	277	-nan
31	1025045	278	0
31	1025045	279	-nan
31	1025045	280	0
31	1025045	281	-nan
31	1025045	282	-nan
31	1025045	283	0
31	1025045	284	0
31	1025045	285	0
31	1025045	286	-nan
31	1025045	287	0
31	1025045	288	0
31	1025045	289	-nan
31	1025045	290	-nan
31	1025045	291	-nan
31	1025045	292	-nan
31	1025045	293	0
31	1025045	294	-nan
31	1025045	295	0
31	1025045	296	0
31	1025045	297	0
31	1025045	298	0
31	1025045	299	-nan
31	1025045	300	-nan
31	1025045	301	-nan
31	1025045	302	0
31	1025045	303	-nan
31	1025045	304	0
31	1025045	305	0
31	1025045	306	-nan
31	1025045	307	-nan
31	1025045	308	-nan
31	1025045	309	-nan
31	1025045	310	-nan
31	1025045	311	-nan
31	1025045	312	0
31	1025045	313	0
31	1025045	314	-nan
31	1025045	315	-nan
31	1025045	316	-nan
31	1025045	317	-nan
31	1025045	318	-nan
31	1025045	319	-nan
31	1025045	320	-nan
31	1025045	321	-nan
31	1025045	322	-nan
31	1025045	323	-nan
31	1025045	324	0
31	1025045	325	0
31	1025045	326	0
31	1025045	327	0
31	1025045	328	-nan
31	1025045	329	-nan
31	1025045	330	-nan
31	1025045	331	0
31	1025045	332	-nan
31	1025045	333	-nan
31	1025045	334	-nan
31	1025045	335	-nan
31	1025045	336	-nan
31	1025045	337	-nan
31	1025045	338	-nan
31	1025045	339	0
31	1025045	340	0
31	1025045	341	0
31	1025045	342	0
31	1025045	343	-nan
31	1025045	344	-nan
31	1025045	345	0
31	1025045	346	-nan
31	1025045	347	0
31	1025045	348	0
31	1025045	349	-nan
31	1025045	350	0
31	1025045	351	-nan
31	1025045	352	0
31	1025045	353	-nan
31	1025045	354	0
31	1025045	355	0
31	1025045	356	0
31	1025045	357	0
31	1025045	358	-nan
31	1025045	359	-nan
31	1025045	360	-nan
31	1025045	361	0
31	1025045	362	-nan
31	1025045	363	0
31	1025045	364	-nan
31	1025045	365	0
31	1025045	366	0
31	1025045	367	0
31	1025045	368	0
31	1025045	369	-nan
31	1025045	370	-nan
31	1025045	371	-nan
31	1025045	372	0
31	1025045	373	-nan
31	1025045	374	0
31	1025045	375	0