version 2
run General-0-20150519-11:05:44-22968
attr D lce
attr F spr
attr R lru
attr a 1
attr configname General
attr datetime 20150519-11:05:44
attr experiment General
attr inifile omnetpp.ini
attr iterationvars "$net=geant, $rep=0, $a=1, $F=spr, $ttl=1000, $D=lce, $R=lru"
attr iterationvars2 "$net=geant, $rep=0, $a=1, $F=spr, $ttl=1000, $D=lce, $R=lru, $repetition=0"
attr measurement "$net=geant, $rep=0, $a=1, $F=spr, $ttl=1000, $D=lce, $R=lru"
attr net geant
attr network networks.${net=geant}_network
attr processid 22968
attr rep 0
attr repetition 0
attr replication #0
attr resultdir results
attr runnumber 0
attr seedset 0
attr ttl 1000

vector 0  geant_network.node[0].content_store  hit_node[0]  ETV
0	7031498	1	1
0	7031498	2	0.98863636363636
0	7031498	3	0.98484848484848
0	7031498	4	0.90384615384615
0	7031498	5	0.75
0	7031498	6	0.80769230769231
0	7031498	7	0.70833333333333
0	7031498	8	0.69230769230769
0	7031498	9	0.59090909090909
0	7031498	10	0.60869565217391
0	7031498	11	0.5625
0	7031498	12	0.36363636363636
0	7031498	13	0.47058823529412
0	7031498	14	0.42857142857143
0	7031498	15	0.60869565217391
0	7031498	16	0.33333333333333
0	7031498	17	0.375
0	7031498	18	0.56521739130435
0	7031498	19	0.2
0	7031498	20	0.4
0	7031498	21	0.11111111111111
0	7031498	22	0.42857142857143
0	7031498	23	0
0	7031498	24	0.25
0	7031498	25	0.28571428571429
0	7031498	26	0.2
0	7031498	27	0
0	7031498	28	0.16666666666667
0	7031498	29	0.33333333333333
0	7031498	30	0
0	7031498	31	0.58333333333333
0	7031498	32	0.33333333333333
0	7031498	33	0.25
0	7031498	34	0.33333333333333
0	7031498	35	0.16666666666667
0	7031498	36	0.4
0	7031498	37	0
0	7031498	38	0.16666666666667
0	7031498	39	0.4
0	7031498	40	0.14285714285714
0	7031498	41	0.47058823529412
0	7031498	42	0.25
0	7031498	43	0
0	7031498	44	0
0	7031498	45	0
0	7031498	46	0
0	7031498	47	0
0	7031498	48	0.33333333333333
0	7031498	49	0
0	7031498	50	0.26666666666667
0	7031498	51	0
0	7031498	52	0
0	7031498	53	0
0	7031498	54	0
0	7031498	55	0.16666666666667
0	7031498	56	0.25
0	7031498	57	0
0	7031498	58	0
0	7031498	59	0
0	7031498	60	-nan
0	7031498	61	0
0	7031498	62	0.125
0	7031498	63	0
0	7031498	64	0
0	7031498	65	-nan
0	7031498	66	0
0	7031498	67	0
0	7031498	68	0.22222222222222
0	7031498	69	0.25
0	7031498	70	0.42857142857143
0	7031498	71	0
0	7031498	72	0
0	7031498	73	0.30769230769231
0	7031498	74	0
0	7031498	75	-nan
0	7031498	76	0
vector 1  geant_network.node[1].content_store  hit_node[1]  ETV
1	7031498	1	-nan
1	7031498	2	-nan
1	7031498	3	-nan
1	7031498	4	-nan
1	7031498	5	0.38888888888889
1	7031498	6	-nan
1	7031498	7	0
1	7031498	8	0.5
1	7031498	9	0
1	7031498	10	0.9
1	7031498	11	0.8125
1	7031498	12	-nan
1	7031498	13	-nan
1	7031498	14	-nan
1	7031498	15	0.8
1	7031498	16	-nan
1	7031498	17	-nan
1	7031498	18	0.47058823529412
1	7031498	19	0
1	7031498	20	0
1	7031498	21	-nan
1	7031498	22	-nan
1	7031498	23	0.16666666666667
1	7031498	24	0.82857142857143
1	7031498	25	0
1	7031498	26	-nan
1	7031498	27	0
1	7031498	28	0.22222222222222
1	7031498	29	-nan
1	7031498	30	-nan
1	7031498	31	0
1	7031498	32	0
1	7031498	33	0
1	7031498	34	-nan
1	7031498	35	0
1	7031498	36	-nan
1	7031498	37	-nan
1	7031498	38	-nan
1	7031498	39	-nan
1	7031498	40	0.74074074074074
1	7031498	41	0.41176470588235
1	7031498	42	-nan
1	7031498	43	-nan
1	7031498	44	-nan
1	7031498	45	-nan
1	7031498	46	0
1	7031498	47	0
1	7031498	48	-nan
1	7031498	49	-nan
1	7031498	50	0.38461538461538
1	7031498	51	0.58333333333333
1	7031498	52	0.16666666666667
1	7031498	53	0
1	7031498	54	-nan
1	7031498	55	-nan
1	7031498	56	-nan
1	7031498	57	-nan
1	7031498	58	-nan
1	7031498	59	-nan
1	7031498	60	-nan
1	7031498	61	0.125
1	7031498	62	0.5
1	7031498	63	-nan
1	7031498	64	-nan
1	7031498	65	-nan
1	7031498	66	0
1	7031498	67	-nan
1	7031498	68	0
1	7031498	69	0.59090909090909
1	7031498	70	0.22222222222222
1	7031498	71	0
1	7031498	72	0
1	7031498	73	0.27272727272727
1	7031498	74	0
1	7031498	75	-nan
1	7031498	76	-nan
vector 2  geant_network.node[2].content_store  hit_node[2]  ETV
2	7031498	1	-nan
2	7031498	2	-nan
2	7031498	3	-nan
2	7031498	4	-nan
2	7031498	5	-nan
2	7031498	6	-nan
2	7031498	7	-nan
2	7031498	8	-nan
2	7031498	9	-nan
2	7031498	10	-nan
2	7031498	11	-nan
2	7031498	12	-nan
2	7031498	13	-nan
2	7031498	14	-nan
2	7031498	15	-nan
2	7031498	16	-nan
2	7031498	17	-nan
2	7031498	18	-nan
2	7031498	19	-nan
2	7031498	20	-nan
2	7031498	21	-nan
2	7031498	22	-nan
2	7031498	23	-nan
2	7031498	24	-nan
2	7031498	25	-nan
2	7031498	26	-nan
2	7031498	27	-nan
2	7031498	28	-nan
2	7031498	29	-nan
2	7031498	30	-nan
2	7031498	31	-nan
2	7031498	32	-nan
2	7031498	33	-nan
2	7031498	34	-nan
2	7031498	35	-nan
2	7031498	36	-nan
2	7031498	37	-nan
2	7031498	38	-nan
2	7031498	39	-nan
2	7031498	40	-nan
2	7031498	41	-nan
2	7031498	42	-nan
2	7031498	43	-nan
2	7031498	44	-nan
2	7031498	45	-nan
2	7031498	46	-nan
2	7031498	47	-nan
2	7031498	48	-nan
2	7031498	49	-nan
2	7031498	50	-nan
2	7031498	51	-nan
2	7031498	52	-nan
2	7031498	53	-nan
2	7031498	54	-nan
2	7031498	55	-nan
2	7031498	56	-nan
2	7031498	57	-nan
2	7031498	58	-nan
2	7031498	59	-nan
2	7031498	60	-nan
2	7031498	61	-nan
2	7031498	62	-nan
2	7031498	63	-nan
2	7031498	64	-nan
2	7031498	65	-nan
2	7031498	66	-nan
2	7031498	67	-nan
2	7031498	68	-nan
2	7031498	69	-nan
2	7031498	70	-nan
2	7031498	71	-nan
2	7031498	72	-nan
2	7031498	73	-nan
2	7031498	74	-nan
2	7031498	75	-nan
2	7031498	76	-nan
vector 3  geant_network.node[3].content_store  hit_node[3]  ETV
3	7031498	1	-nan
3	7031498	2	0
3	7031498	3	0
3	7031498	4	-nan
3	7031498	5	0.46153846153846
3	7031498	6	0
3	7031498	7	0.57142857142857
3	7031498	8	0.66666666666667
3	7031498	9	0.46875
3	7031498	10	0.54285714285714
3	7031498	11	0.625
3	7031498	12	-nan
3	7031498	13	0
3	7031498	14	0
3	7031498	15	0.59375
3	7031498	16	-nan
3	7031498	17	-nan
3	7031498	18	0.52
3	7031498	19	-nan
3	7031498	20	0.43478260869565
3	7031498	21	0
3	7031498	22	-nan
3	7031498	23	0.15384615384615
3	7031498	24	0.55555555555556
3	7031498	25	0.5
3	7031498	26	0
3	7031498	27	0
3	7031498	28	0.43478260869565
3	7031498	29	-nan
3	7031498	30	0
3	7031498	31	0.3
3	7031498	32	0.33333333333333
3	7031498	33	0.11111111111111
3	7031498	34	0
3	7031498	35	0.43478260869565
3	7031498	36	-nan
3	7031498	37	-nan
3	7031498	38	0.14285714285714
3	7031498	39	0
3	7031498	40	0.21428571428571
3	7031498	41	0.3125
3	7031498	42	0
3	7031498	43	-nan
3	7031498	44	-nan
3	7031498	45	-nan
3	7031498	46	0.14285714285714
3	7031498	47	-nan
3	7031498	48	-nan
3	7031498	49	-nan
3	7031498	50	0.30769230769231
3	7031498	51	0.26315789473684
3	7031498	52	0.14285714285714
3	7031498	53	0.3125
3	7031498	54	0
3	7031498	55	-nan
3	7031498	56	-nan
3	7031498	57	0
3	7031498	58	-nan
3	7031498	59	-nan
3	7031498	60	0
3	7031498	61	0.18181818181818
3	7031498	62	0.36363636363636
3	7031498	63	-nan
3	7031498	64	-nan
3	7031498	65	0.076923076923077
3	7031498	66	0.33333333333333
3	7031498	67	-nan
3	7031498	68	0.38888888888889
3	7031498	69	0.30769230769231
3	7031498	70	0.22222222222222
3	7031498	71	0
3	7031498	72	-nan
3	7031498	73	0.1
3	7031498	74	0.23076923076923
3	7031498	75	-nan
3	7031498	76	-nan
vector 4  geant_network.node[4].content_store  hit_node[4]  ETV
4	7031498	1	1
4	7031498	2	0.93333333333333
4	7031498	3	0.94520547945205
4	7031498	4	0.83673469387755
4	7031498	5	0.6
4	7031498	6	0.84745762711864
4	7031498	7	0.62857142857143
4	7031498	8	0.52173913043478
4	7031498	9	0.65
4	7031498	10	0.47368421052632
4	7031498	11	0.38888888888889
4	7031498	12	0.63333333333333
4	7031498	13	0.3
4	7031498	14	0.78723404255319
4	7031498	15	0.25
4	7031498	16	0.35714285714286
4	7031498	17	0.5
4	7031498	18	0.375
4	7031498	19	0.44444444444444
4	7031498	20	0.28571428571429
4	7031498	21	0.54838709677419
4	7031498	22	0.33333333333333
4	7031498	23	0.28571428571429
4	7031498	24	0.18181818181818
4	7031498	25	0.16666666666667
4	7031498	26	0.42857142857143
4	7031498	27	0.46153846153846
4	7031498	28	0.14285714285714
4	7031498	29	0.4
4	7031498	30	0.55555555555556
4	7031498	31	0.1
4	7031498	32	0
4	7031498	33	0.30769230769231
4	7031498	34	0.45454545454545
4	7031498	35	0.29411764705882
4	7031498	36	0.16666666666667
4	7031498	37	0.16666666666667
4	7031498	38	0.125
4	7031498	39	0.4375
4	7031498	40	0.5
4	7031498	41	0.2
4	7031498	42	0.43478260869565
4	7031498	43	0.25
4	7031498	44	0.33333333333333
4	7031498	45	0.2
4	7031498	46	0.125
4	7031498	47	0.18181818181818
4	7031498	48	0.16666666666667
4	7031498	49	0.38095238095238
4	7031498	50	0
4	7031498	51	0
4	7031498	52	0.16666666666667
4	7031498	53	0
4	7031498	54	0
4	7031498	55	0
4	7031498	56	0.2
4	7031498	57	0.5
4	7031498	58	0.2
4	7031498	59	0.1
4	7031498	60	0
4	7031498	61	0
4	7031498	62	0
4	7031498	63	0
4	7031498	64	0
4	7031498	65	0.125
4	7031498	66	0
4	7031498	67	0.2
4	7031498	68	0
4	7031498	69	0
4	7031498	70	0
4	7031498	71	0
4	7031498	72	0.11111111111111
4	7031498	73	0
4	7031498	74	0
4	7031498	75	0.16666666666667
4	7031498	76	0
vector 5  geant_network.node[5].content_store  hit_node[5]  ETV
5	7031498	1	1
5	7031498	2	0.96039603960396
5	7031498	3	0.83050847457627
5	7031498	4	0.83050847457627
5	7031498	5	0.76595744680851
5	7031498	6	0.52173913043478
5	7031498	7	0.51612903225806
5	7031498	8	0.76
5	7031498	9	0.59090909090909
5	7031498	10	0.47826086956522
5	7031498	11	0.30434782608696
5	7031498	12	0.22222222222222
5	7031498	13	0.30769230769231
5	7031498	14	0.35714285714286
5	7031498	15	0.4
5	7031498	16	0.45
5	7031498	17	0.41666666666667
5	7031498	18	0.42857142857143
5	7031498	19	0
5	7031498	20	0.33333333333333
5	7031498	21	0
5	7031498	22	0.2
5	7031498	23	0.27272727272727
5	7031498	24	0.42857142857143
5	7031498	25	0.22222222222222
5	7031498	26	0.25
5	7031498	27	0.25
5	7031498	28	0.61764705882353
5	7031498	29	0.2
5	7031498	30	0.33333333333333
5	7031498	31	0.4
5	7031498	32	0.56666666666667
5	7031498	33	0
5	7031498	34	0.33333333333333
5	7031498	35	0.25
5	7031498	36	0.36363636363636
5	7031498	37	0.22222222222222
5	7031498	38	0.25
5	7031498	39	0.5
5	7031498	40	0
5	7031498	41	0.125
5	7031498	42	0
5	7031498	43	0.25
5	7031498	44	0.25
5	7031498	45	0
5	7031498	46	0
5	7031498	47	0
5	7031498	48	0
5	7031498	49	0
5	7031498	50	0.2
5	7031498	51	0.125
5	7031498	52	0.53571428571429
5	7031498	53	0.125
5	7031498	54	0.25
5	7031498	55	0.14285714285714
5	7031498	56	0.54545454545455
5	7031498	57	0
5	7031498	58	0.2
5	7031498	59	0
5	7031498	60	0
5	7031498	61	0.31578947368421
5	7031498	62	0.16666666666667
5	7031498	63	0.4
5	7031498	64	0
5	7031498	65	0.14285714285714
5	7031498	66	0
5	7031498	67	0
5	7031498	68	0.5
5	7031498	69	0.2
5	7031498	70	0
5	7031498	71	0.25
5	7031498	72	0.16666666666667
5	7031498	73	0
5	7031498	74	0.42857142857143
5	7031498	75	0
5	7031498	76	0
vector 6  geant_network.node[6].content_store  hit_node[6]  ETV
6	7031498	1	1
6	7031498	2	1
6	7031498	3	0.98484848484848
6	7031498	4	0.95652173913043
6	7031498	5	0.93023255813953
6	7031498	6	0.88235294117647
6	7031498	7	0.68421052631579
6	7031498	8	0.77272727272727
6	7031498	9	0.80952380952381
6	7031498	10	0.83333333333333
6	7031498	11	0.55555555555556
6	7031498	12	0.76
6	7031498	13	0.71428571428571
6	7031498	14	0.80952380952381
6	7031498	15	0.61538461538462
6	7031498	16	0
6	7031498	17	0.5
6	7031498	18	0.5
6	7031498	19	0.16666666666667
6	7031498	20	0.42857142857143
6	7031498	21	0.57142857142857
6	7031498	22	0.5
6	7031498	23	0.5
6	7031498	24	0.42857142857143
6	7031498	25	0.33333333333333
6	7031498	26	0.25
6	7031498	27	0.1
6	7031498	28	0
6	7031498	29	0.28571428571429
6	7031498	30	0
6	7031498	31	0.33333333333333
6	7031498	32	0.4
6	7031498	33	0.42857142857143
6	7031498	34	0.71428571428571
6	7031498	35	0.71428571428571
6	7031498	36	0.2
6	7031498	37	0
6	7031498	38	0.2
6	7031498	39	0.54545454545455
6	7031498	40	0
6	7031498	41	0.28571428571429
6	7031498	42	0
6	7031498	43	0.42857142857143
6	7031498	44	0.16666666666667
6	7031498	45	0.16666666666667
6	7031498	46	0.4
6	7031498	47	0.5
6	7031498	48	0.33333333333333
6	7031498	49	0.2
6	7031498	50	0
6	7031498	51	0
6	7031498	52	0.5
6	7031498	53	0.25
6	7031498	54	0
6	7031498	55	0
6	7031498	56	0.2
6	7031498	57	0.16666666666667
6	7031498	58	0
6	7031498	59	0
6	7031498	60	0
6	7031498	61	0.25
6	7031498	62	0
6	7031498	63	0
6	7031498	64	0.25
6	7031498	65	0
6	7031498	66	0
6	7031498	67	0.33333333333333
6	7031498	68	0
6	7031498	69	0
6	7031498	70	0
6	7031498	71	0
6	7031498	72	0.2
6	7031498	73	0
6	7031498	74	-nan
6	7031498	75	0
6	7031498	76	0.25
vector 7  geant_network.node[7].content_store  hit_node[7]  ETV
7	7031498	1	-nan
7	7031498	2	0.1
7	7031498	3	0.25
7	7031498	4	-nan
7	7031498	5	-nan
7	7031498	6	0.57894736842105
7	7031498	7	-nan
7	7031498	8	-nan
7	7031498	9	-nan
7	7031498	10	-nan
7	7031498	11	-nan
7	7031498	12	0.52941176470588
7	7031498	13	-nan
7	7031498	14	0.55
7	7031498	15	-nan
7	7031498	16	-nan
7	7031498	17	0.47619047619048
7	7031498	18	-nan
7	7031498	19	0
7	7031498	20	-nan
7	7031498	21	0.67857142857143
7	7031498	22	0.42105263157895
7	7031498	23	0.46666666666667
7	7031498	24	-nan
7	7031498	25	-nan
7	7031498	26	-nan
7	7031498	27	0.4375
7	7031498	28	-nan
7	7031498	29	0.7
7	7031498	30	0.65
7	7031498	31	-nan
7	7031498	32	-nan
7	7031498	33	0.23076923076923
7	7031498	34	0.66666666666667
7	7031498	35	-nan
7	7031498	36	-nan
7	7031498	37	-nan
7	7031498	38	-nan
7	7031498	39	0.57894736842105
7	7031498	40	-nan
7	7031498	41	-nan
7	7031498	42	0.41176470588235
7	7031498	43	0.5
7	7031498	44	-nan
7	7031498	45	-nan
7	7031498	46	0
7	7031498	47	0
7	7031498	48	0.5
7	7031498	49	0.35294117647059
7	7031498	50	-nan
7	7031498	51	-nan
7	7031498	52	-nan
7	7031498	53	-nan
7	7031498	54	-nan
7	7031498	55	-nan
7	7031498	56	-nan
7	7031498	57	0.4375
7	7031498	58	-nan
7	7031498	59	0.375
7	7031498	60	-nan
7	7031498	61	-nan
7	7031498	62	-nan
7	7031498	63	-nan
7	7031498	64	-nan
7	7031498	65	-nan
7	7031498	66	-nan
7	7031498	67	0.4375
7	7031498	68	-nan
7	7031498	69	-nan
7	7031498	70	-nan
7	7031498	71	0.22222222222222
7	7031498	72	0
7	7031498	73	-nan
7	7031498	74	-nan
7	7031498	75	0
7	7031498	76	-nan
vector 8  geant_network.node[8].content_store  hit_node[8]  ETV
8	7031498	1	-nan
8	7031498	2	0.42857142857143
8	7031498	3	0
8	7031498	4	-nan
8	7031498	5	-nan
8	7031498	6	0.4
8	7031498	7	-nan
8	7031498	8	-nan
8	7031498	9	-nan
8	7031498	10	-nan
8	7031498	11	-nan
8	7031498	12	0.70588235294118
8	7031498	13	-nan
8	7031498	14	0.33333333333333
8	7031498	15	-nan
8	7031498	16	-nan
8	7031498	17	0.64705882352941
8	7031498	18	-nan
8	7031498	19	-nan
8	7031498	20	-nan
8	7031498	21	0.27272727272727
8	7031498	22	0.73684210526316
8	7031498	23	0.125
8	7031498	24	-nan
8	7031498	25	-nan
8	7031498	26	-nan
8	7031498	27	0.11111111111111
8	7031498	28	-nan
8	7031498	29	0.6875
8	7031498	30	0.5
8	7031498	31	-nan
8	7031498	32	-nan
8	7031498	33	0.3
8	7031498	34	0.28571428571429
8	7031498	35	-nan
8	7031498	36	-nan
8	7031498	37	-nan
8	7031498	38	-nan
8	7031498	39	0.44444444444444
8	7031498	40	-nan
8	7031498	41	-nan
8	7031498	42	0
8	7031498	43	0.64705882352941
8	7031498	44	-nan
8	7031498	45	-nan
8	7031498	46	0.2
8	7031498	47	-nan
8	7031498	48	0.14285714285714
8	7031498	49	0.64705882352941
8	7031498	50	-nan
8	7031498	51	-nan
8	7031498	52	-nan
8	7031498	53	-nan
8	7031498	54	-nan
8	7031498	55	-nan
8	7031498	56	-nan
8	7031498	57	0
8	7031498	58	-nan
8	7031498	59	0.46666666666667
8	7031498	60	-nan
8	7031498	61	-nan
8	7031498	62	-nan
8	7031498	63	-nan
8	7031498	64	-nan
8	7031498	65	-nan
8	7031498	66	-nan
8	7031498	67	0.6
8	7031498	68	-nan
8	7031498	69	-nan
8	7031498	70	-nan
8	7031498	71	0.14285714285714
8	7031498	72	-nan
8	7031498	73	-nan
8	7031498	74	-nan
8	7031498	75	-nan
8	7031498	76	-nan
vector 9  geant_network.node[9].content_store  hit_node[9]  ETV
9	7031498	1	1
9	7031498	2	0.92391304347826
9	7031498	3	0.90140845070423
9	7031498	4	0.62068965517241
9	7031498	5	0.68421052631579
9	7031498	6	0.76190476190476
9	7031498	7	0.59259259259259
9	7031498	8	0.40740740740741
9	7031498	9	0.5
9	7031498	10	0.5
9	7031498	11	0.53846153846154
9	7031498	12	0.55
9	7031498	13	0.55555555555556
9	7031498	14	0.25
9	7031498	15	0.26315789473684
9	7031498	16	0.25
9	7031498	17	0.53846153846154
9	7031498	18	0.45
9	7031498	19	0.2
9	7031498	20	0.14285714285714
9	7031498	21	0.3125
9	7031498	22	0.38461538461538
9	7031498	23	0.64705882352941
9	7031498	24	0.5
9	7031498	25	0.2
9	7031498	26	0.42857142857143
9	7031498	27	0.72727272727273
9	7031498	28	0.3
9	7031498	29	0.23076923076923
9	7031498	30	0.23076923076923
9	7031498	31	0.11111111111111
9	7031498	32	0.25
9	7031498	33	0.48275862068966
9	7031498	34	0.36363636363636
9	7031498	35	0
9	7031498	36	0
9	7031498	37	0.11111111111111
9	7031498	38	0.33333333333333
9	7031498	39	0.30769230769231
9	7031498	40	0.375
9	7031498	41	0.11111111111111
9	7031498	42	0
9	7031498	43	0.22222222222222
9	7031498	44	0.375
9	7031498	45	0.1
9	7031498	46	0.57142857142857
9	7031498	47	0.1
9	7031498	48	0
9	7031498	49	0
9	7031498	50	0
9	7031498	51	0.28571428571429
9	7031498	52	0
9	7031498	53	0.125
9	7031498	54	0
9	7031498	55	0
9	7031498	56	0.125
9	7031498	57	0
9	7031498	58	0
9	7031498	59	0.16666666666667
9	7031498	60	0
9	7031498	61	0
9	7031498	62	0
9	7031498	63	0
9	7031498	64	0
9	7031498	65	0
9	7031498	66	0.33333333333333
9	7031498	67	0.25
9	7031498	68	0
9	7031498	69	0
9	7031498	70	0.14285714285714
9	7031498	71	0.44444444444444
9	7031498	72	0.25
9	7031498	73	0.16666666666667
9	7031498	74	0
9	7031498	75	0
9	7031498	76	0
vector 10  geant_network.node[10].content_store  hit_node[10]  ETV
10	7031498	1	1
10	7031498	2	1
10	7031498	3	0.96551724137931
10	7031498	4	1
10	7031498	5	0.87179487179487
10	7031498	6	0.86486486486486
10	7031498	7	0.84375
10	7031498	8	0.88
10	7031498	9	0.94444444444444
10	7031498	10	0.66666666666667
10	7031498	11	0.58823529411765
10	7031498	12	0.76190476190476
10	7031498	13	0.46153846153846
10	7031498	14	0.53333333333333
10	7031498	15	0.36363636363636
10	7031498	16	0.6
10	7031498	17	0.64705882352941
10	7031498	18	0.45454545454545
10	7031498	19	0
10	7031498	20	0.6
10	7031498	21	0.36363636363636
10	7031498	22	0.53846153846154
10	7031498	23	0.5
10	7031498	24	0.55555555555556
10	7031498	25	0.5
10	7031498	26	0.16666666666667
10	7031498	27	0.66666666666667
10	7031498	28	0.66666666666667
10	7031498	29	0.54545454545455
10	7031498	30	0.16666666666667
10	7031498	31	0
10	7031498	32	0.375
10	7031498	33	0.4
10	7031498	34	0.4
10	7031498	35	0
10	7031498	36	0
10	7031498	37	0.33333333333333
10	7031498	38	0
10	7031498	39	0.55555555555556
10	7031498	40	0
10	7031498	41	0
10	7031498	42	0
10	7031498	43	0.375
10	7031498	44	0.14285714285714
10	7031498	45	0.16666666666667
10	7031498	46	0.33333333333333
10	7031498	47	0.25
10	7031498	48	0
10	7031498	49	0.16666666666667
10	7031498	50	0.25
10	7031498	51	0
10	7031498	52	0.5
10	7031498	53	0.16666666666667
10	7031498	54	0.33333333333333
10	7031498	55	0
10	7031498	56	0.14285714285714
10	7031498	57	0
10	7031498	58	0
10	7031498	59	0.16666666666667
10	7031498	60	0.25
10	7031498	61	0
10	7031498	62	0
10	7031498	63	0
10	7031498	64	0.66666666666667
10	7031498	65	0.2
10	7031498	66	0.57142857142857
10	7031498	67	0.44444444444444
10	7031498	68	0
10	7031498	69	0
10	7031498	70	0.33333333333333
10	7031498	71	0.16666666666667
10	7031498	72	0.33333333333333
10	7031498	73	0
10	7031498	74	-nan
10	7031498	75	0
10	7031498	76	0
vector 11  geant_network.node[11].content_store  hit_node[11]  ETV
11	7031498	1	1
11	7031498	2	0.99009900990099
11	7031498	3	0.96875
11	7031498	4	0.91304347826087
11	7031498	5	0.9
11	7031498	6	0.7037037037037
11	7031498	7	0.96078431372549
11	7031498	8	0.63636363636364
11	7031498	9	0.89189189189189
11	7031498	10	0.55
11	7031498	11	0.75
11	7031498	12	0.41666666666667
11	7031498	13	0.68421052631579
11	7031498	14	0.46153846153846
11	7031498	15	0.75
11	7031498	16	0.54545454545455
11	7031498	17	0.33333333333333
11	7031498	18	0.5
11	7031498	19	0.14285714285714
11	7031498	20	0.75862068965517
11	7031498	21	0.16666666666667
11	7031498	22	0
11	7031498	23	0.2
11	7031498	24	0.28571428571429
11	7031498	25	0.7037037037037
11	7031498	26	0.25
11	7031498	27	0
11	7031498	28	0.25
11	7031498	29	0
11	7031498	30	0.45454545454545
11	7031498	31	0
11	7031498	32	0.16666666666667
11	7031498	33	0.2
11	7031498	34	0
11	7031498	35	0.16666666666667
11	7031498	36	0
11	7031498	37	0
11	7031498	38	0
11	7031498	39	0
11	7031498	40	0.2
11	7031498	41	0
11	7031498	42	0.25
11	7031498	43	0
11	7031498	44	0
11	7031498	45	0
11	7031498	46	0.28571428571429
11	7031498	47	0
11	7031498	48	-nan
11	7031498	49	0
11	7031498	50	0
11	7031498	51	0
11	7031498	52	0.5
11	7031498	53	0
11	7031498	54	0.25
11	7031498	55	0
11	7031498	56	0.5
11	7031498	57	0
11	7031498	58	0
11	7031498	59	0.25
11	7031498	60	0.5
11	7031498	61	0.5
11	7031498	62	0
11	7031498	63	0
11	7031498	64	0
11	7031498	65	0.5
11	7031498	66	0.625
11	7031498	67	0.2
11	7031498	68	0.5
11	7031498	69	0
11	7031498	70	0
11	7031498	71	0.4
11	7031498	72	0
11	7031498	73	0
11	7031498	74	0
11	7031498	75	0
11	7031498	76	0
vector 12  geant_network.node[12].content_store  hit_node[12]  ETV
12	7031498	1	-nan
12	7031498	2	0
12	7031498	3	0
12	7031498	4	0.066666666666667
12	7031498	5	0.0625
12	7031498	6	0
12	7031498	7	0.26923076923077
12	7031498	8	0.20833333333333
12	7031498	9	0.32258064516129
12	7031498	10	0.38095238095238
12	7031498	11	0.1875
12	7031498	12	-nan
12	7031498	13	0.44827586206897
12	7031498	14	0
12	7031498	15	0.22222222222222
12	7031498	16	0.23529411764706
12	7031498	17	-nan
12	7031498	18	0.071428571428571
12	7031498	19	0.071428571428571
12	7031498	20	0.25
12	7031498	21	0
12	7031498	22	-nan
12	7031498	23	0.31578947368421
12	7031498	24	0.090909090909091
12	7031498	25	0.2
12	7031498	26	0.38095238095238
12	7031498	27	0.25
12	7031498	28	0
12	7031498	29	-nan
12	7031498	30	0
12	7031498	31	0.55555555555556
12	7031498	32	0.14285714285714
12	7031498	33	0.15384615384615
12	7031498	34	0
12	7031498	35	0.41935483870968
12	7031498	36	0.1
12	7031498	37	0.083333333333333
12	7031498	38	0.34782608695652
12	7031498	39	0
12	7031498	40	0.11111111111111
12	7031498	41	0.1
12	7031498	42	0
12	7031498	43	-nan
12	7031498	44	0.16666666666667
12	7031498	45	0.15384615384615
12	7031498	46	0.27272727272727
12	7031498	47	0.090909090909091
12	7031498	48	-nan
12	7031498	49	-nan
12	7031498	50	0
12	7031498	51	0
12	7031498	52	0
12	7031498	53	0.40909090909091
12	7031498	54	0.375
12	7031498	55	0
12	7031498	56	0
12	7031498	57	0
12	7031498	58	0
12	7031498	59	-nan
12	7031498	60	0.076923076923077
12	7031498	61	0.25
12	7031498	62	0.2
12	7031498	63	0.14285714285714
12	7031498	64	0
12	7031498	65	0.2
12	7031498	66	0.083333333333333
12	7031498	67	-nan
12	7031498	68	0
12	7031498	69	0
12	7031498	70	0
12	7031498	71	0.33333333333333
12	7031498	72	0
12	7031498	73	0
12	7031498	74	0.095238095238095
12	7031498	75	0.14285714285714
12	7031498	76	0.11111111111111
vector 13  geant_network.node[13].content_store  hit_node[13]  ETV
13	7031498	1	-nan
13	7031498	2	-nan
13	7031498	3	-nan
13	7031498	4	0.5
13	7031498	5	-nan
13	7031498	6	-nan
13	7031498	7	0.27272727272727
13	7031498	8	-nan
13	7031498	9	0.36363636363636
13	7031498	10	-nan
13	7031498	11	-nan
13	7031498	12	-nan
13	7031498	13	0.96551724137931
13	7031498	14	-nan
13	7031498	15	-nan
13	7031498	16	0.69230769230769
13	7031498	17	-nan
13	7031498	18	-nan
13	7031498	19	-nan
13	7031498	20	0
13	7031498	21	-nan
13	7031498	22	-nan
13	7031498	23	0.42857142857143
13	7031498	24	-nan
13	7031498	25	0.33333333333333
13	7031498	26	0.84615384615385
13	7031498	27	0.28571428571429
13	7031498	28	-nan
13	7031498	29	-nan
13	7031498	30	-nan
13	7031498	31	0.4
13	7031498	32	-nan
13	7031498	33	0.25
13	7031498	34	-nan
13	7031498	35	0
13	7031498	36	0.22222222222222
13	7031498	37	0.45454545454545
13	7031498	38	0.85185185185185
13	7031498	39	-nan
13	7031498	40	-nan
13	7031498	41	-nan
13	7031498	42	-nan
13	7031498	43	-nan
13	7031498	44	0.2
13	7031498	45	0.36363636363636
13	7031498	46	0
13	7031498	47	-nan
13	7031498	48	-nan
13	7031498	49	-nan
13	7031498	50	-nan
13	7031498	51	-nan
13	7031498	52	-nan
13	7031498	53	0
13	7031498	54	0.68421052631579
13	7031498	55	0.2
13	7031498	56	0.375
13	7031498	57	-nan
13	7031498	58	0.28571428571429
13	7031498	59	-nan
13	7031498	60	0.75
13	7031498	61	-nan
13	7031498	62	-nan
13	7031498	63	0.16666666666667
13	7031498	64	0.2
13	7031498	65	0.33333333333333
13	7031498	66	0
13	7031498	67	-nan
13	7031498	68	-nan
13	7031498	69	-nan
13	7031498	70	-nan
13	7031498	71	0
13	7031498	72	-nan
13	7031498	73	-nan
13	7031498	74	0
13	7031498	75	-nan
13	7031498	76	0.25
vector 14  geant_network.node[14].content_store  hit_node[14]  ETV
14	7031498	1	0.99418604651163
14	7031498	2	0.95294117647059
14	7031498	3	0.88135593220339
14	7031498	4	0.8955223880597
14	7031498	5	0.8
14	7031498	6	0.71428571428571
14	7031498	7	0.47619047619048
14	7031498	8	0.63888888888889
14	7031498	9	0.57692307692308
14	7031498	10	0.16666666666667
14	7031498	11	0.46666666666667
14	7031498	12	0.5
14	7031498	13	0.675
14	7031498	14	0.33333333333333
14	7031498	15	0.3
14	7031498	16	0.73333333333333
14	7031498	17	0.28571428571429
14	7031498	18	0.3
14	7031498	19	0.16666666666667
14	7031498	20	0.36363636363636
14	7031498	21	0.57142857142857
14	7031498	22	0.18181818181818
14	7031498	23	0.22222222222222
14	7031498	24	0
14	7031498	25	0.4
14	7031498	26	0.48
14	7031498	27	0.3
14	7031498	28	0.46666666666667
14	7031498	29	0
14	7031498	30	0.33333333333333
14	7031498	31	0
14	7031498	32	0.33333333333333
14	7031498	33	0
14	7031498	34	0
14	7031498	35	0.25
14	7031498	36	0.58620689655172
14	7031498	37	0.55555555555556
14	7031498	38	0.4
14	7031498	39	0
14	7031498	40	0.25
14	7031498	41	0
14	7031498	42	0
14	7031498	43	0.4
14	7031498	44	0.67647058823529
14	7031498	45	0.64285714285714
14	7031498	46	0
14	7031498	47	0.2
14	7031498	48	0
14	7031498	49	0
14	7031498	50	0
14	7031498	51	0
14	7031498	52	0.1
14	7031498	53	0
14	7031498	54	0
14	7031498	55	0.48
14	7031498	56	0.5
14	7031498	57	0
14	7031498	58	0.40909090909091
14	7031498	59	0
14	7031498	60	0.2
14	7031498	61	0.28571428571429
14	7031498	62	0
14	7031498	63	0.65217391304348
14	7031498	64	0.44
14	7031498	65	0
14	7031498	66	0
14	7031498	67	0
14	7031498	68	0.2
14	7031498	69	0.16666666666667
14	7031498	70	0.33333333333333
14	7031498	71	0
14	7031498	72	0
14	7031498	73	0.33333333333333
14	7031498	74	0
14	7031498	75	0.25
14	7031498	76	0.47619047619048
vector 15  geant_network.node[15].content_store  hit_node[15]  ETV
15	7031498	1	-nan
15	7031498	2	0
15	7031498	3	0
15	7031498	4	0.25
15	7031498	5	-nan
15	7031498	6	0.46666666666667
15	7031498	7	0
15	7031498	8	-nan
15	7031498	9	0
15	7031498	10	0.2
15	7031498	11	0.125
15	7031498	12	0.5
15	7031498	13	0
15	7031498	14	0.28571428571429
15	7031498	15	0
15	7031498	16	0.11111111111111
15	7031498	17	0.36363636363636
15	7031498	18	-nan
15	7031498	19	0.95348837209302
15	7031498	20	0
15	7031498	21	0.33333333333333
15	7031498	22	0.5
15	7031498	23	0
15	7031498	24	0.125
15	7031498	25	0
15	7031498	26	0
15	7031498	27	0
15	7031498	28	-nan
15	7031498	29	0.36363636363636
15	7031498	30	0.4
15	7031498	31	0
15	7031498	32	-nan
15	7031498	33	0
15	7031498	34	0
15	7031498	35	0
15	7031498	36	0.2
15	7031498	37	0.2
15	7031498	38	0
15	7031498	39	0.25
15	7031498	40	0
15	7031498	41	-nan
15	7031498	42	0
15	7031498	43	0.25
15	7031498	44	0
15	7031498	45	0
15	7031498	46	0
15	7031498	47	0.84375
15	7031498	48	0
15	7031498	49	0.44444444444444
15	7031498	50	-nan
15	7031498	51	0
15	7031498	52	-nan
15	7031498	53	0
15	7031498	54	0
15	7031498	55	0
15	7031498	56	0
15	7031498	57	0.28571428571429
15	7031498	58	0
15	7031498	59	0.25
15	7031498	60	0
15	7031498	61	-nan
15	7031498	62	0
15	7031498	63	0
15	7031498	64	0
15	7031498	65	0
15	7031498	66	0
15	7031498	67	0.16666666666667
15	7031498	68	-nan
15	7031498	69	0
15	7031498	70	-nan
15	7031498	71	0
15	7031498	72	0.59090909090909
15	7031498	73	-nan
15	7031498	74	0
15	7031498	75	0.4375
15	7031498	76	0
vector 16  geant_network.node[16].content_store  hit_node[16]  ETV
16	7031498	1	-nan
16	7031498	2	-nan
16	7031498	3	-nan
16	7031498	4	0.81818181818182
16	7031498	5	-nan
16	7031498	6	-nan
16	7031498	7	-nan
16	7031498	8	-nan
16	7031498	9	-nan
16	7031498	10	-nan
16	7031498	11	-nan
16	7031498	12	-nan
16	7031498	13	-nan
16	7031498	14	-nan
16	7031498	15	-nan
16	7031498	16	1
16	7031498	17	-nan
16	7031498	18	-nan
16	7031498	19	-nan
16	7031498	20	-nan
16	7031498	21	-nan
16	7031498	22	-nan
16	7031498	23	-nan
16	7031498	24	-nan
16	7031498	25	-nan
16	7031498	26	-nan
16	7031498	27	-nan
16	7031498	28	-nan
16	7031498	29	-nan
16	7031498	30	-nan
16	7031498	31	-nan
16	7031498	32	-nan
16	7031498	33	-nan
16	7031498	34	-nan
16	7031498	35	-nan
16	7031498	36	0.94444444444444
16	7031498	37	0.875
16	7031498	38	-nan
16	7031498	39	-nan
16	7031498	40	-nan
16	7031498	41	-nan
16	7031498	42	-nan
16	7031498	43	-nan
16	7031498	44	0.92857142857143
16	7031498	45	1
16	7031498	46	-nan
16	7031498	47	-nan
16	7031498	48	-nan
16	7031498	49	-nan
16	7031498	50	-nan
16	7031498	51	-nan
16	7031498	52	-nan
16	7031498	53	-nan
16	7031498	54	-nan
16	7031498	55	0.84615384615385
16	7031498	56	1
16	7031498	57	-nan
16	7031498	58	1
16	7031498	59	-nan
16	7031498	60	-nan
16	7031498	61	-nan
16	7031498	62	-nan
16	7031498	63	0.81818181818182
16	7031498	64	0.89473684210526
16	7031498	65	-nan
16	7031498	66	-nan
16	7031498	67	-nan
16	7031498	68	-nan
16	7031498	69	-nan
16	7031498	70	-nan
16	7031498	71	-nan
16	7031498	72	-nan
16	7031498	73	-nan
16	7031498	74	-nan
16	7031498	75	-nan
16	7031498	76	0.85714285714286
vector 17  geant_network.node[17].content_store  hit_node[17]  ETV
17	7031498	1	1
17	7031498	2	1
17	7031498	3	0.98333333333333
17	7031498	4	0.89473684210526
17	7031498	5	0.91111111111111
17	7031498	6	0.90322580645161
17	7031498	7	0.88461538461538
17	7031498	8	0.83333333333333
17	7031498	9	0.63157894736842
17	7031498	10	0.70833333333333
17	7031498	11	0.88461538461538
17	7031498	12	0.57142857142857
17	7031498	13	0.69230769230769
17	7031498	14	0.75
17	7031498	15	0.66666666666667
17	7031498	16	0.2
17	7031498	17	0.57142857142857
17	7031498	18	0.73684210526316
17	7031498	19	0.14285714285714
17	7031498	20	0.63636363636364
17	7031498	21	0.14285714285714
17	7031498	22	0.44444444444444
17	7031498	23	0.2
17	7031498	24	0.5625
17	7031498	25	0.16666666666667
17	7031498	26	0.25
17	7031498	27	0.61538461538462
17	7031498	28	0.2
17	7031498	29	0
17	7031498	30	0.25
17	7031498	31	0.25
17	7031498	32	0.5
17	7031498	33	0
17	7031498	34	0.5
17	7031498	35	0
17	7031498	36	0.14285714285714
17	7031498	37	0.5
17	7031498	38	0