version 2
run General-8-20140102-00:49:41-25383
attr D lce
attr F spr
attr R lru
attr a 1.2
attr configname General
attr csize 10^2
attr datetime 20140102-00:49:41
attr experiment General
attr inifile omnetpp.ini
attr iterationvars "$net=simple_scenario_cache_in_the_core, $rep=0, $a=1.2, $F=spr, $ttl=1000, $D=lce, $R=lru, $csize=10^2"
attr iterationvars2 "$net=simple_scenario_cache_in_the_core, $rep=0, $a=1.2, $F=spr, $ttl=1000, $D=lce, $R=lru, $csize=10^2, $repetition=0"
attr measurement "$net=simple_scenario_cache_in_the_core, $rep=0, $a=1.2, $F=spr, $ttl=1000, $D=lce, $R=lru, $csize=10^2"
attr net simple_scenario_cache_in_the_core
attr network networks.${net=simple_scenario_cache_in_the_core,simple_scenario_cache_at_border}_network
attr processid 25383
attr rep 0
attr repetition 0
attr replication #0
attr resultdir results
attr runnumber 8
attr seedset 0
attr ttl 1000

vector 48  simple_scenario_cache_in_the_core_network.node[0].content_store  hit_node[0]  ETV
48	890095	1	1
48	890095	2	1
48	890095	3	0.99989038693412
48	890095	4	0.99860659544821
48	890095	5	0.99516226567224
48	890095	6	0.98189342990171
48	890095	7	0.95894334818587
48	890095	8	0.94340302811824
48	890095	9	0.92436272461346
48	890095	10	0.90799464046449
48	890095	11	0.87570912841671
48	890095	12	0.85327313769752
48	890095	13	0.82913337430854
48	890095	14	0.80888290713324
48	890095	15	0.76238390092879
vector 49  simple_scenario_cache_in_the_core_network.node[1].content_store  hit_node[1]  ETV
49	890095	1	-nan
49	890095	2	-nan
49	890095	3	-nan
49	890095	4	0
49	890095	5	-nan
49	890095	6	-nan
49	890095	7	-nan
49	890095	8	-nan
49	890095	9	-nan
49	890095	10	-nan
49	890095	11	-nan
49	890095	12	0
49	890095	13	0
49	890095	14	-nan
49	890095	15	0
vector 50  simple_scenario_cache_in_the_core_network.node[2].content_store  hit_node[2]  ETV
50	890095	1	-nan
50	890095	2	-nan
50	890095	3	0
50	890095	4	-nan
50	890095	5	0
50	890095	6	0
50	890095	7	0
50	890095	8	0
50	890095	9	0
50	890095	10	0
50	890095	11	0
50	890095	12	-nan
50	890095	13	-nan
50	890095	14	0
50	890095	15	-nan
vector 51  simple_scenario_cache_in_the_core_network.node[3].content_store  hit_node[3]  ETV
51	890095	1	-nan
51	890095	2	-nan
51	890095	3	-nan
51	890095	4	0
51	890095	5	-nan
51	890095	6	-nan
51	890095	7	-nan
51	890095	8	-nan
51	890095	9	-nan
51	890095	10	-nan
51	890095	11	-nan
51	890095	12	0
51	890095	13	0
51	890095	14	-nan
51	890095	15	0
vector 52  simple_scenario_cache_in_the_core_network.node[4].content_store  hit_node[4]  ETV
52	890095	1	-nan
52	890095	2	-nan
52	890095	3	0
52	890095	4	-nan
52	890095	5	0
52	890095	6	0
52	890095	7	0
52	890095	8	0
52	890095	9	0
52	890095	10	0
52	890095	11	0
52	890095	12	-nan
52	890095	13	-nan
52	890095	14	0
52	890095	15	-nan
vector 53  simple_scenario_cache_in_the_core_network.client[0]  hdistance[0]  ETV
53	890095	1	1.26713053683
53	890095	2	1.2670768211284
53	890095	3	1.2670684553759
53	890095	4	1.2667841376436
53	890095	5	1.2668717650177
53	890095	6	1.2666473708609
53	890095	7	1.2677466010179
53	890095	8	1.2665717167324
53	890095	9	1.2665828199216
53	890095	10	1.2666235233996
53	890095	11	1.266521116773
53	890095	12	1.2662992277527
53	890095	13	1.2662184626448
53	890095	14	1.2661646491466
53	890095	15	1.2660889038834
