version 2
run General-21-20140102-00:54:36-25383
attr D lce
attr F spr
attr R lru
attr a 1.2
attr configname General
attr csize 10^3
attr datetime 20140102-00:54:36
attr experiment General
attr inifile omnetpp.ini
attr iterationvars "$net=simple_scenario_cache_at_border, $rep=0, $a=1.2, $F=spr, $ttl=1000, $D=lce, $R=lru, $csize=10^3"
attr iterationvars2 "$net=simple_scenario_cache_at_border, $rep=0, $a=1.2, $F=spr, $ttl=1000, $D=lce, $R=lru, $csize=10^3, $repetition=0"
attr measurement "$net=simple_scenario_cache_at_border, $rep=0, $a=1.2, $F=spr, $ttl=1000, $D=lce, $R=lru, $csize=10^3"
attr net simple_scenario_cache_at_border
attr network networks.${net=simple_scenario_cache_in_the_core,simple_scenario_cache_at_border}_network
attr processid 25383
attr rep 0
attr repetition 0
attr replication #0
attr resultdir results
attr runnumber 21
attr seedset 0
attr ttl 1000

vector 126  simple_scenario_cache_at_border_network.node[0].content_store  hit_node[0]  ETV
126	1225499	1	0
126	1225499	2	0
126	1225499	3	0
126	1225499	4	0
126	1225499	5	0
126	1225499	6	0
126	1225499	7	0
126	1225499	8	0
126	1225499	9	0
126	1225499	10	0
126	1225499	11	0
126	1225499	12	0
126	1225499	13	0
126	1225499	14	0
126	1225499	15	0
vector 127  simple_scenario_cache_at_border_network.node[1].content_store  hit_node[1]  ETV
127	1225499	1	1
127	1225499	2	-nan
127	1225499	3	-nan
127	1225499	4	1
127	1225499	5	-nan
127	1225499	6	-nan
127	1225499	7	-nan
127	1225499	8	-nan
127	1225499	9	-nan
127	1225499	10	-nan
127	1225499	11	-nan
127	1225499	12	1
127	1225499	13	1
127	1225499	14	-nan
127	1225499	15	1
vector 128  simple_scenario_cache_at_border_network.node[2].content_store  hit_node[2]  ETV
128	1225499	1	-nan
128	1225499	2	0
128	1225499	3	0
128	1225499	4	-nan
128	1225499	5	0
128	1225499	6	0
128	1225499	7	0
128	1225499	8	0
128	1225499	9	0
128	1225499	10	0
128	1225499	11	0
128	1225499	12	-nan
128	1225499	13	-nan
128	1225499	14	0
128	1225499	15	-nan
vector 129  simple_scenario_cache_at_border_network.node[3].content_store  hit_node[3]  ETV
129	1225499	1	-nan
129	1225499	2	-nan
129	1225499	3	-nan
129	1225499	4	-nan
129	1225499	5	-nan
129	1225499	6	-nan
129	1225499	7	-nan
129	1225499	8	-nan
129	1225499	9	-nan
129	1225499	10	-nan
129	1225499	11	-nan
129	1225499	12	-nan
129	1225499	13	-nan
129	1225499	14	-nan
129	1225499	15	-nan
vector 130  simple_scenario_cache_at_border_network.node[4].content_store  hit_node[4]  ETV
130	1225499	1	-nan
130	1225499	2	0
130	1225499	3	0
130	1225499	4	-nan
130	1225499	5	0
130	1225499	6	0
130	1225499	7	0
130	1225499	8	0
130	1225499	9	0
130	1225499	10	0
130	1225499	11	0
130	1225499	12	-nan
130	1225499	13	-nan
130	1225499	14	0
130	1225499	15	-nan
vector 131  simple_scenario_cache_at_border_network.client[0]  hdistance[0]  ETV
131	1225499	1	2.2147687662858
131	1225499	2	2.2148644352579
131	1225499	3	2.2148932861309
131	1225499	4	2.2145970621422
131	1225499	5	2.2149663179906
131	1225499	6	2.2150380664252
131	1225499	7	2.2150414655062
131	1225499	8	2.2150698264429
131	1225499	9	2.2151152112296
131	1225499	10	2.2151491048527
131	1225499	11	2.215166222031
131	1225499	12	2.2140895642121
131	1225499	13	2.21403989018
131	1225499	14	2.2153292892384
131	1225499	15	2.2138955099688
