file 463842873 1397917649                                       
version 2
run General-47-20140419-16:25:55-7376
attr D costprob0.01
attr F nrr
attr R lru
attr a 0.8
attr configname General
attr csize 10
attr ctlg 10^8
attr datetime 20140419-16:25:55
attr experiment General
attr inifile omnetpp.ini
attr iterationvars "$net=simple_scenario, $rep=1, $priceratiovalue=2, $a=0.8, $ctlg=10^8, $F=nrr, $ttl=1000, $D=costprob0.01, $R=lru, $csize=10"
attr iterationvars2 "$net=simple_scenario, $rep=1, $priceratiovalue=2, $a=0.8, $ctlg=10^8, $F=nrr, $ttl=1000, $D=costprob0.01, $R=lru, $csize=10, $repetition=0"
attr measurement "$net=simple_scenario, $rep=1, $priceratiovalue=2, $a=0.8, $ctlg=10^8, $F=nrr, $ttl=1000, $D=costprob0.01, $R=lru, $csize=10"
attr net simple_scenario
attr network networks.${net=simple_scenario}_network
attr priceratiovalue 2
attr processid 7376
attr rep 1
attr repetition 0
attr replication #0
attr resultdir results
attr runnumber 47
attr seedset 1
attr ttl 1000

vector 0  simple_scenario_network.node[0].content_store  hit_node[0]  ETV
0	999 15138434 1344925 1344925 1 699051 699051 0 0.80685714285714 -nan -nan
0	15139433 15746700 1344925 1344925 699052 1398102 699051 0 0 -nan -nan
0	30886133 16058727 1344925 1344925 1398103 2097153 699051 0 0 -nan -nan
0	46944860 16063011 1344925 1344925 2097154 2796204 699051 0 0 -nan -nan
0	63007871 15927354 1344925 1344925 2796205 3489213 693009 0 0 -nan -nan
vector 1  simple_scenario_network.node[1].content_store  hit_node[1]  ETV
1	78935299 15203203 1344925 1344925 1 699051 699051 0 0.53416149068323 -nan -nan
1	94138502 15761769 1344925 1344925 699052 1398102 699051 0 0 -nan -nan
1	109900271 16068660 1344925 1344925 1398103 2097153 699051 0 0 -nan -nan
1	125968931 16070514 1344925 1344925 2097154 2796204 699051 0 0 -nan -nan
1	142039445 15933279 1344925 1344925 2796205 3489213 693009 0 0 -nan -nan
vector 2  simple_scenario_network.node[2].content_store  hit_node[2]  ETV
2	157972798 15203357 1344925 1344925 1 699051 699051 0 0.29953917050691 -nan -nan
2	173176155 15762156 1344925 1344925 699052 1398102 699051 0 0 -nan -nan
2	188938311 16068240 1344925 1344925 1398103 2097153 699051 0 0 -nan -nan
2	205006551 16070670 1344925 1344925 2097154 2796204 699051 0 0 -nan -nan
2	221077221 15933282 1344925 1344925 2796205 3489213 693009 0 0 -nan -nan
vector 3  simple_scenario_network.node[3].content_store  hit_node[3]  ETV
3	237010577 15203037 1344925 1344925 1 699051 699051 0 0 -nan -nan
3	252213614 15761769 1344925 1344925 699052 1398102 699051 0 0 -nan -nan
3	267975383 16068660 1344925 1344925 1398103 2097153 699051 0 0 -nan -nan
3	284044043 16070514 1344925 1344925 2097154 2796204 699051 0 0 -nan -nan
3	300114557 15933279 1344925 1344925 2796205 3489213 693009 0 0 -nan -nan
vector 4  simple_scenario_network.node[4].content_store  hit_node[4]  ETV
4	316047910 15203109 1344925 1344925 1 699051 699051 0 0 -nan -nan
4	331251019 15762156 1344925 1344925 699052 1398102 699051 0 0 -nan -nan
4	347013175 16068240 1344925 1344925 1398103 2097153 699051 0 0 -nan -nan
4	363081415 16070670 1344925 1344925 2097154 2796204 699051 0 0 -nan -nan
4	379152085 15933282 1344925 1344925 2796205 3489213 693009 0 0 -nan -nan
vector 5  simple_scenario_network.client[0]  hdistance[0]  ETV
5	395085430 13253420 1344925 1344925 1 699051 699051 0 3 129821.78564809 389269.08164445
5	408338850 13681234 1344925 1344925 699052 1398102 699051 0 3 30524.323324965 91570.945769457
5	422020084 13981283 1344925 1344925 1398103 2097153 699051 0 3 19445.840701336 58337.045569421
5	436001367 13981256 1344925 1344925 2097154 2796204 699051 0 3 15161.860197242 45485.162355828
5	449982623 13860250 1344925 1344925 2796205 3489213 693009 0 3 11852.956505876 35558.739415225
