version 2
run General-20-20140101-23:38:44-24991
attr D lce
attr F spr
attr R lru
attr a 1.2
attr configname General
attr csize 10^2
attr datetime 20140101-23:38:44
attr experiment General
attr inifile omnetpp.ini
attr iterationvars "$net=simple_scenario_cache_at_border, $rep=0, $a=1.2, $F=spr, $ttl=1000, $D=lce, $R=lru, $csize=10^2"
attr iterationvars2 "$net=simple_scenario_cache_at_border, $rep=0, $a=1.2, $F=spr, $ttl=1000, $D=lce, $R=lru, $csize=10^2, $repetition=0"
attr measurement "$net=simple_scenario_cache_at_border, $rep=0, $a=1.2, $F=spr, $ttl=1000, $D=lce, $R=lru, $csize=10^2"
attr net simple_scenario_cache_at_border
attr network networks.${net=simple_scenario_cache_in_the_core,simple_scenario_cache_at_border}_network
attr processid 24991
attr rep 0
attr repetition 0
attr replication #0
attr resultdir results
attr runnumber 20
attr seedset 0
attr ttl 1000

vector 120  simple_scenario_cache_at_border_network.node[0].content_store  hit_node[0]  ETV
120	1204802	1	0
120	1204802	2	0
120	1204802	3	0
120	1204802	4	0
120	1204802	5	0
120	1204802	6	0
120	1204802	7	0
120	1204802	8	0
120	1204802	9	0
120	1204802	10	0
120	1204802	11	0
120	1204802	12	0
120	1204802	13	0
120	1204802	14	0
120	1204802	15	0
vector 121  simple_scenario_cache_at_border_network.node[1].content_store  hit_node[1]  ETV
121	1204802	1	1
121	1204802	2	-nan
121	1204802	3	-nan
121	1204802	4	1
121	1204802	5	-nan
121	1204802	6	-nan
121	1204802	7	-nan
121	1204802	8	-nan
121	1204802	9	-nan
121	1204802	10	-nan
121	1204802	11	-nan
121	1204802	12	0.99000587889477
121	1204802	13	0.98462524023062
121	1204802	14	-nan
121	1204802	15	0.97297297297297
vector 122  simple_scenario_cache_at_border_network.node[2].content_store  hit_node[2]  ETV
122	1204802	1	-nan
122	1204802	2	0
122	1204802	3	0
122	1204802	4	-nan
122	1204802	5	0
122	1204802	6	0
122	1204802	7	0
122	1204802	8	0
122	1204802	9	0
122	1204802	10	0
122	1204802	11	0
122	1204802	12	-nan
122	1204802	13	-nan
122	1204802	14	0
122	1204802	15	-nan
vector 123  simple_scenario_cache_at_border_network.node[3].content_store  hit_node[3]  ETV
123	1204802	1	-nan
123	1204802	2	-nan
123	1204802	3	-nan
123	1204802	4	-nan
123	1204802	5	-nan
123	1204802	6	-nan
123	1204802	7	-nan
123	1204802	8	-nan
123	1204802	9	-nan
123	1204802	10	-nan
123	1204802	11	-nan
123	1204802	12	0
123	1204802	13	0
123	1204802	14	-nan
123	1204802	15	0
vector 124  simple_scenario_cache_at_border_network.node[4].content_store  hit_node[4]  ETV
124	1204802	1	-nan
124	1204802	2	0
124	1204802	3	0
124	1204802	4	-nan
124	1204802	5	0
124	1204802	6	0
124	1204802	7	0
124	1204802	8	0
124	1204802	9	0
124	1204802	10	0
124	1204802	11	0
124	1204802	12	-nan
124	1204802	13	-nan
124	1204802	14	0
124	1204802	15	-nan
vector 125  simple_scenario_cache_at_border_network.client[0]  hdistance[0]  ETV
125	1204802	1	2.3649279392539
125	1204802	2	2.3650119182134
125	1204802	3	2.365038887014
125	1204802	4	2.364750276774
125	1204802	5	2.3651319869237
125	1204802	6	2.3651346816057
125	1204802	7	2.3652125154087
125	1204802	8	2.3652734024347
125	1204802	9	2.3652473553682
125	1204802	10	2.3653217161326
125	1204802	11	2.3653786959517
125	1204802	12	2.3641991713688
125	1204802	13	2.3641284783351
125	1204802	14	2.3654709115461
125	1204802	15	2.3640401365085
