version 2
run General-16-20150311-18:59:41-28971
attr D lce
attr F spr
attr R lru
attr a 0.9
attr configname General
attr datetime 20150311-18:59:41
attr experiment General
attr inifile omnetpp.ini
attr iterationvars "$net=abilene, $rep=0, $a=0.9, $F=spr, $ttl=1000, $D=lce, $R=lru"
attr iterationvars2 "$net=abilene, $rep=0, $a=0.9, $F=spr, $ttl=1000, $D=lce, $R=lru, $repetition=0"
attr measurement "$net=abilene, $rep=0, $a=0.9, $F=spr, $ttl=1000, $D=lce, $R=lru"
attr net abilene
attr network networks.${net=abilene}_network
attr processid 28971
attr rep 0
attr repetition 0
attr replication #0
attr resultdir results
attr runnumber 16
attr seedset 0
attr ttl 1000

vector 0  abilene_network.node[0].content_store  hit_node[0]  ETV
0	387153	1	1
0	387153	2	0.94642857142857
0	387153	3	0.97872340425532
0	387153	4	0.94285714285714
0	387153	5	0.9
0	387153	6	0.66666666666667
0	387153	7	0.86666666666667
0	387153	8	0.4
0	387153	9	0.3
0	387153	10	0.68421052631579
0	387153	11	0.75
0	387153	12	0.84210526315789
0	387153	13	0.625
0	387153	14	0.58333333333333
0	387153	15	0.2
0	387153	16	0.6
0	387153	17	0
0	387153	18	0.66666666666667
0	387153	19	0.625
0	387153	20	0.25
0	387153	21	0.6
0	387153	22	0.6
0	387153	23	0.2
0	387153	24	0.25
0	387153	25	0.2
0	387153	26	0.6
0	387153	27	0.2
0	387153	28	0.42857142857143
0	387153	29	0.33333333333333
0	387153	30	0
0	387153	31	0
0	387153	32	0
0	387153	33	0.2
0	387153	34	0
0	387153	35	0
0	387153	36	0
0	387153	37	0.16666666666667
0	387153	38	0
0	387153	39	0
0	387153	40	0.2
0	387153	41	0
0	387153	42	0
0	387153	43	-nan
0	387153	44	0
0	387153	45	0.33333333333333
0	387153	46	0
0	387153	47	0
0	387153	48	0.5
0	387153	49	0
0	387153	50	0
0	387153	51	0
0	387153	52	0
0	387153	53	0
0	387153	54	0
0	387153	55	0
0	387153	56	0.25
0	387153	57	0.57142857142857
0	387153	58	0.4
0	387153	59	0
0	387153	60	0
0	387153	61	-nan
0	387153	62	0
0	387153	63	0.4
0	387153	64	0
0	387153	65	0
0	387153	66	0
0	387153	67	0.33333333333333
0	387153	68	0
0	387153	69	0
0	387153	70	0
0	387153	71	0
0	387153	72	0
0	387153	73	0.2
0	387153	74	0.28571428571429
0	387153	75	0.5
0	387153	76	0
0	387153	77	0.25
0	387153	78	0
0	387153	79	0
0	387153	80	0
0	387153	81	0
0	387153	82	0
0	387153	83	0.5
0	387153	84	0
0	387153	85	0
0	387153	86	0
0	387153	87	0
0	387153	88	0
0	387153	89	0
0	387153	90	0
0	387153	91	0
0	387153	92	0
0	387153	93	0
0	387153	94	0.33333333333333
0	387153	95	0.2
0	387153	96	0.33333333333333
0	387153	97	0
0	387153	98	0.5
0	387153	99	0
0	387153	100	0
0	387153	101	0
0	387153	102	0
0	387153	103	0
0	387153	104	0
0	387153	105	0
0	387153	106	0
0	387153	107	0.33333333333333
0	387153	108	0
0	387153	109	0.5
0	387153	110	0.66666666666667
0	387153	111	0.25
0	387153	112	0
0	387153	113	0
0	387153	114	-nan
0	387153	115	0
0	387153	116	0
0	387153	117	0
0	387153	118	0
0	387153	119	0
0	387153	120	0
0	387153	121	0
0	387153	122	0
0	387153	123	0
0	387153	124	0.33333333333333
0	387153	125	0
0	387153	126	-nan
0	387153	127	0
0	387153	128	0
0	387153	129	0
0	387153	130	0
0	387153	131	0
0	387153	132	0
0	387153	133	0
0	387153	134	0
0	387153	135	0
0	387153	136	0
0	387153	137	-nan
0	387153	138	-nan
0	387153	139	-nan
0	387153	140	0
0	387153	141	0.5
0	387153	142	-nan
0	387153	143	0
0	387153	144	-nan
0	387153	145	-nan
0	387153	146	-nan
0	387153	147	0
0	387153	148	0
0	387153	149	0
0	387153	150	0.5
0	387153	151	0
0	387153	152	-nan
0	387153	153	0
0	387153	154	-nan
0	387153	155	0
0	387153	156	0
0	387153	157	0
0	387153	158	0
0	387153	159	-nan
0	387153	160	0
0	387153	161	0
0	387153	162	-nan
0	387153	163	0
0	387153	164	-nan
0	387153	165	0
0	387153	166	0.5
0	387153	167	0
0	387153	168	0
0	387153	169	0.5
0	387153	170	0
0	387153	171	0
0	387153	172	0
0	387153	173	0
0	387153	174	0
0	387153	175	0
0	387153	176	0
0	387153	177	-nan
0	387153	178	0
0	387153	179	0
0	387153	180	0
0	387153	181	0
0	387153	182	0
0	387153	183	0
0	387153	184	0
0	387153	185	0
0	387153	186	-nan
0	387153	187	0
0	387153	188	0.25
0	387153	189	-nan
0	387153	190	-nan
0	387153	191	-nan
0	387153	192	0
0	387153	193	0
0	387153	194	0
0	387153	195	-nan
0	387153	196	-nan
0	387153	197	0
0	387153	198	-nan
0	387153	199	0
0	387153	200	0
0	387153	201	0
0	387153	202	0
0	387153	203	0
0	387153	204	-nan
0	387153	205	0
0	387153	206	0
0	387153	207	0
0	387153	208	0
0	387153	209	0
0	387153	210	0
0	387153	211	0
0	387153	212	-nan
0	387153	213	0
0	387153	214	-nan
0	387153	215	0.5
0	387153	216	-nan
0	387153	217	-nan
0	387153	218	0
0	387153	219	0
0	387153	220	0
0	387153	221	-nan
0	387153	222	0
0	387153	223	0
0	387153	224	-nan
0	387153	225	-nan
0	387153	226	0
0	387153	227	-nan
0	387153	228	0
0	387153	229	-nan
0	387153	230	-nan
0	387153	231	-nan
0	387153	232	0
0	387153	233	0
0	387153	234	-nan
0	387153	235	0
0	387153	236	0
0	387153	237	0
0	387153	238	0
vector 1  abilene_network.node[1].content_store  hit_node[1]  ETV
1	387153	1	0.95454545454545
1	387153	2	0.8375
1	387153	3	0.71111111111111
1	387153	4	0.69767441860465
1	387153	5	0.48648648648649
1	387153	6	0.54054054054054
1	387153	7	0.44
1	387153	8	0.44827586206897
1	387153	9	0.40625
1	387153	10	0.57692307692308
1	387153	11	0.59375
1	387153	12	0.40740740740741
1	387153	13	0.33333333333333
1	387153	14	0.43478260869565
1	387153	15	0.3
1	387153	16	0.47058823529412
1	387153	17	0.26666666666667
1	387153	18	0.31578947368421
1	387153	19	0.33333333333333
1	387153	20	0.2
1	387153	21	0.3125
1	387153	22	0.36363636363636
1	387153	23	0.083333333333333
1	387153	24	0.21428571428571
1	387153	25	0.38461538461538
1	387153	26	0.26666666666667
1	387153	27	0.52631578947368
1	387153	28	0.071428571428571
1	387153	29	0.33333333333333
1	387153	30	0.28571428571429
1	387153	31	0.35714285714286
1	387153	32	0.25
1	387153	33	0.30769230769231
1	387153	34	0
1	387153	35	0.25
1	387153	36	0
1	387153	37	0.15384615384615
1	387153	38	0.27777777777778
1	387153	39	0.125
1	387153	40	0.2
1	387153	41	0.33333333333333
1	387153	42	0.28571428571429
1	387153	43	0.2
1	387153	44	0.18181818181818
1	387153	45	0.16666666666667
1	387153	46	0.45454545454545
1	387153	47	0.27272727272727
1	387153	48	0
1	387153	49	0.1
1	387153	50	0.125
1	387153	51	0
1	387153	52	0.2
1	387153	53	0.11111111111111
1	387153	54	0.25
1	387153	55	0
1	387153	56	0.22222222222222
1	387153	57	0
1	387153	58	0
1	387153	59	0
1	387153	60	0.5
1	387153	61	0.14285714285714
1	387153	62	0
1	387153	63	0
1	387153	64	0
1	387153	65	0
1	387153	66	0
1	387153	67	0.22222222222222
1	387153	68	0.2
1	387153	69	0
1	387153	70	0
1	387153	71	0.3
1	387153	72	0.125
1	387153	73	0
1	387153	74	0.1
1	387153	75	0
1	387153	76	0.16666666666667
1	387153	77	0.25
1	387153	78	0.2
1	387153	79	0
1	387153	80	0.25
1	387153	81	0.33333333333333
1	387153	82	0
1	387153	83	0.16666666666667
1	387153	84	0.2
1	387153	85	0
1	387153	86	0.14285714285714
1	387153	87	0.25
1	387153	88	0.125
1	387153	89	0
1	387153	90	0
1	387153	91	0
1	387153	92	0
1	387153	93	0
1	387153	94	0
1	387153	95	0
1	387153	96	0.125
1	387153	97	0.25
1	387153	98	0.16666666666667
1	387153	99	0.1
1	387153	100	0.2
1	387153	101	0
1	387153	102	0
1	387153	103	0
1	387153	104	0
1	387153	105	0
1	387153	106	0
1	387153	107	0.2
1	387153	108	0.25
1	387153	109	0
1	387153	110	0
1	387153	111	0.125
1	387153	112	0
1	387153	113	0
1	387153	114	0
1	387153	115	0.25
1	387153	116	0
1	387153	117	0
1	387153	118	0.14285714285714
1	387153	119	0
1	387153	120	0
1	387153	121	0.33333333333333
1	387153	122	0.2
1	387153	123	0
1	387153	124	0
1	387153	125	0
1	387153	126	0
1	387153	127	0
1	387153	128	0
1	387153	129	0
1	387153	130	0
1	387153	131	0.16666666666667
1	387153	132	0.25
1	387153	133	0.16666666666667
1	387153	134	0.33333333333333
1	387153	135	0.14285714285714
1	387153	136	0
1	387153	137	0
1	387153	138	0
1	387153	139	0.33333333333333
1	387153	140	0
1	387153	141	0.14285714285714
1	387153	142	0.25
1	387153	143	0
1	387153	144	0
1	387153	145	0
1	387153	146	0
1	387153	147	0
1	387153	148	0.25
1	387153	149	0
1	387153	150	0.16666666666667
1	387153	151	0
1	387153	152	0
1	387153	153	0
1	387153	154	0
1	387153	155	0
1	387153	156	0
1	387153	157	0
1	387153	158	0
1	387153	159	0
1	387153	160	0
1	387153	161	0
1	387153	162	0.5
1	387153	163	0.2
1	387153	164	0
1	387153	165	0.25
1	387153	166	0
1	387153	167	0
1	387153	168	0
1	387153	169	0
1	387153	170	0
1	387153	171	0.28571428571429
1	387153	172	0
1	387153	173	0
1	387153	174	0
1	387153	175	0
1	387153	176	0
1	387153	177	0.33333333333333
1	387153	178	0
1	387153	179	0.16666666666667
1	387153	180	0.33333333333333
1	387153	181	0
1	387153	182	0
1	387153	183	0.25
1	387153	184	0.25
1	387153	185	0
1	387153	186	0
1	387153	187	0
1	387153	188	0
1	387153	189	0
1	387153	190	0
1	387153	191	0
1	387153	192	0
1	387153	193	0
1	387153	194	0
1	387153	195	0
1	387153	196	0
1	387153	197	0.33333333333333
1	387153	198	0
1	387153	199	0
1	387153	200	0
1	387153	201	0
1	387153	202	0
1	387153	203	0
1	387153	204	0
1	387153	205	0
1	387153	206	0
1	387153	207	0
1	387153	208	0
1	387153	209	0
1	387153	210	0
1	387153	211	0
1	387153	212	0.33333333333333
1	387153	213	0
1	387153	214	-nan
1	387153	215	0
1	387153	216	-nan
1	387153	217	-nan
1	387153	218	0
1	387153	219	0
1	387153	220	0
1	387153	221	0
1	387153	222	0
1	387153	223	0
1	387153	224	0
1	387153	225	0
1	387153	226	0.22222222222222
1	387153	227	0
1	387153	228	0
1	387153	229	0
1	387153	230	0
1	387153	231	0
1	387153	232	0.25
1	387153	233	0
1	387153	234	-nan
1	387153	235	0
1	387153	236	0
1	387153	237	0.16666666666667
1	387153	238	0.2
vector 2  abilene_network.node[2].content_store  hit_node[2]  ETV
2	387153	1	0.8740157480315
2	387153	2	0.77027027027027
2	387153	3	0.58064516129032
2	387153	4	0.48717948717949
2	387153	5	0.44736842105263
2	387153	6	0.45945945945946
2	387153	7	0.51282051282051
2	387153	8	0.42857142857143
2	387153	9	0.33333333333333
2	387153	10	0.4
2	387153	11	0.28
2	387153	12	0.29032258064516
2	387153	13	0.21739130434783
2	387153	14	0.25
2	387153	15	0.2
2	387153	16	0.071428571428571
2	387153	17	0.28571428571429
2	387153	18	0.27272727272727
2	387153	19	0.15789473684211
2	387153	20	0.16666666666667
2	387153	21	0.21052631578947
2	387153	22	0.11764705882353
2	387153	23	0.17647058823529
2	387153	24	0.0625
2	387153	25	0.25
2	387153	26	0.125
2	387153	27	0.22222222222222
2	387153	28	0.15
2	387153	29	0.1
2	387153	30	0.1875
2	387153	31	0
2	387153	32	0.11764705882353
2	387153	33	0
2	387153	34	0.066666666666667
2	387153	35	0.1
2	387153	36	0.14285714285714
2	387153	37	0.066666666666667
2	387153	38	0.15789473684211
2	387153	39	0
2	387153	40	0.26315789473684
2	387153	41	0.090909090909091
2	387153	42	0.2
2	387153	43	0.2
2	387153	44	0.15384615384615
2	387153	45	0
2	387153	46	0
2	387153	47	0.18181818181818
2	387153	48	0
2	387153	49	0.083333333333333
2	387153	50	0.18181818181818
2	387153	51	0.16666666666667
2	387153	52	0.076923076923077
2	387153	53	0
2	387153	54	0
2	387153	55	0.16666666666667
2	387153	56	0
2	387153	57	0
2	387153	58	0.090909090909091
2	387153	59	0.11111111111111
2	387153	60	0
2	387153	61	0.125
2	387153	62	0
2	387153	63	0
2	387153	64	0
2	387153	65	0
2	387153	66	0.25
2	387153	67	0.1
2	387153	68	0.14285714285714
2	387153	69	0
2	387153	70	0
2	387153	71	0.071428571428571
2	387153	72	0
2	387153	73	0
2	387153	74	0
2	387153	75	0.14285714285714
2	387153	76	0
2	387153	77	0.17647058823529
2	387153	78	0
2	387153	79	0
2	387153	80	0
2	387153	81	0
2	387153	82	0.14285714285714
2	387153	83	0
2	387153	84	0
2	387153	85	0.083333333333333
2	387153	86	0
2	387153	87	0
2	387153	88	0.11111111111111
2	387153	89	0
2	387153	90	0.125
2	387153	91	0
2	387153	92	0
2	387153	93	0
2	387153	94	0.14285714285714
2	387153	95	0.125
2	387153	96	0
2	387153	97	0
2	387153	98	0.28571428571429
2	387153	99	0.1
2	387153	100	0
2	387153	101	0.2
2	387153	102	0
2	387153	103	0
2	387153	104	0.28571428571429
2	387153	105	0
2	387153	106	0
2	387153	107	0
2	387153	108	0.2
2	387153	109	0.1
2	387153	110	0
2	387153	111	0
2	387153	112	0
2	387153	113	0.16666666666667
2	387153	114	0
2	387153	115	0
2	387153	116	0.25
2	387153	117	0.2
2	387153	118	0
2	387153	119	0
2	387153	120	0.28571428571429
2	387153	121	0
2	387153	122	0
2	387153	123	0
2	387153	124	0
2	387153	125	0
2	387153	126	0.2
2	387153	127	0
2	387153	128	0.25
2	387153	129	0
2	387153	130	0.25
2	387153	131	0
2	387153	132	0
2	387153	133	0
2	387153	134	0
2	387153	135	0.125
2	387153	136	0
2	387153	137	0
2	387153	138	0
2	387153	139	0
2	387153	140	0.16666666666667
2	387153	141	0
2	387153	142	0
2	387153	143	0
2	387153	144	0
2	387153	145	0
2	387153	146	0
2	387153	147	0
2	387153	148	0
2	387153	149	0
2	387153	150	0
2	387153	151	0
2	387153	152	0
2	387153	153	0
2	387153	154	0.16666666666667
2	387153	155	0.16666666666667
2	387153	156	0
2	387153	157	0
2	387153	158	0
2	387153	159	0
2	387153	160	0.16666666666667
2	387153	161	0.14285714285714
2	387153	162	0
2	387153	163	0.2
2	387153	164	0
2	387153	165	0
2	387153	166	0
2	387153	167	0
2	387153	168	0
2	387153	169	0
2	387153	170	0
2	387153	171	0
2	387153	172	0.14285714285714
2	387153	173	0
2	387153	174	0
2	387153	175	0
2	387153	176	0
2	387153	177	0
2	387153	178	0
2	387153	179	0
2	387153	180	0
2	387153	181	0.33333333333333
2	387153	182	0
2	387153	183	0.16666666666667
2	387153	184	0.25
2	387153	185	0
2	387153	186	0
2	387153	187	0
2	387153	188	0
2	387153	189	0
2	387153	190	0
2	387153	191	0
2	387153	192	0
2	387153	193	0
2	387153	194	0
2	387153	195	0
2	387153	196	0
2	387153	197	0
2	387153	198	0
2	387153	199	0
2	387153	200	0
2	387153	201	0
2	387153	202	0
2	387153	203	0
2	387153	204	0
2	387153	205	0.125
2	387153	206	0
2	387153	207	0
2	387153	208	0
2	387153	209	0
2	387153	210	0
2	387153	211	0
2	387153	212	0
2	387153	213	0
2	387153	214	-nan
2	387153	215	0
2	387153	216	0
2	387153	217	-nan
2	387153	218	0
2	387153	219	0
2	387153	220	0
2	387153	221	0
2	387153	222	0
2	387153	223	0.2
2	387153	224	0
2	387153	225	0
2	387153	226	0
2	387153	227	0
2	387153	228	0
2	387153	229	0
2	387153	230	0
2	387153	231	0
2	387153	232	0
2	387153	233	0
2	387153	234	0
2	387153	235	0
2	387153	236	0
2	387153	237	0
2	387153	238	0
vector 3  abilene_network.node[3].content_store  hit_node[3]  ETV
3	387153	1	0.8843537414966
3	387153	2	0.65
3	387153	3	0.546875
3	387153	4	0.48076923076923
3	387153	5	0.34042553191489
3	387153	6	0.38888888888889
3	387153	7	0.43243243243243
3	387153	8	0.32258064516129
3	387153	9	0.30555555555556
3	387153	10	0.25806451612903
3	387153	11	0.23333333333333
3	387153	12	0.35714285714286
3	387153	13	0.30555555555556
3	387153	14	0.44444444444444
3	387153	15	0.23076923076923
3	387153	16	0.21739130434783
3	387153	17	0.055555555555556
3	387153	18	0.25
3	387153	19	0.19230769230769
3	387153	20	0.22727272727273
3	387153	21	0.15
3	387153	22	0.2
3	387153	23	0.19047619047619
3	387153	24	0.1304347826087
3	387153	25	0.083333333333333
3	387153	26	0.14285714285714
3	387153	27	0.090909090909091
3	387153	28	0.090909090909091
3	387153	29	0.0625
3	387153	30	0
3	387153	31	0.066666666666667
3	387153	32	0.11111111111111
3	387153	33	0.14285714285714
3	387153	34	0.2
3	387153	35	0.071428571428571
3	387153	36	0.13333333333333
3	387153	37	0.055555555555556
3	387153	38	0.10526315789474
3	387153	39	0.071428571428571
3	387153	40	0
3	387153	41	0
3	387153	42	0.090909090909091
3	387153	43	0.11111111111111
3	387153	44	0
3	387153	45	0
3	387153	46	0
3	387153	47	0.083333333333333
3	387153	48	0.083333333333333
3	387153	49	0
3	387153	50	0
3	387153	51	0
3	387153	52	0.095238095238095
3	387153	53	0.125
3	387153	54	0
3	387153	55	0
3	387153	56	0.090909090909091
3	387153	57	0.11111111111111
3	387153	58	0.083333333333333
3	387153	59	0.18181818181818
3	387153	60	0
3	387153	61	0
3	387153	62	0.058823529411765
3	387153	63	0
3	387153	64	0
3	387153	65	0.125
3	387153	66	0
3	387153	67	0.076923076923077
3	387153	68	0
3	387153	69	0.076923076923077
3	387153	70	0.1
3	387153	71	0
3	387153	72	0
3	387153	73	0.076923076923077
3	387153	74	0.071428571428571
3	387153	75	0
3	387153	76	0
3	387153	77	0.0625
3	387153	78	0
3	387153	79	0.11111111111111
3	387153	80	0
3	387153	81	0
3	387153	82	0.125
3	387153	83	0.090909090909091
3	387153	84	0.125
3	387153	85	0.0625
3	387153	86	0.11111111111111
3	387153	87	0
3	387153	88	0
3	387153	89	0
3	387153	90	0.1
3	387153	91	0
3	387153	92	0.33333333333333
3	387153	93	0.16666666666667
3	387153	94	0.125
3	387153	95	0.083333333333333
3	387153	96	0
3	387153	97	0
3	387153	98	0
3	387153	99	0
3	387153	100	0.083333333333333
3	387153	101	0
3	387153	102	0
3	387153	103	0.1
3	387153	104	0.14285714285714
3	387153	105	0
3	387153	106	0
3	387153	107	0.16666666666667
3	387153	108	0
3	387153	109	0.1
3	387153	110	0
3	387153	111	0.22222222222222
3	387153	112	0
3	387153	113	0
3	387153	114	0
3	387153	115	0
3	387153	116	0
3	387153	117	0
3	387153	118	0
3	387153	119	0
3	387153	120	0.16666666666667
3	387153	121	0
3	387153	122	0
3	387153	123	0
3	387153	124	0
3	387153	125	0
3	387153	126	0
3	387153	127	0
3	387153	128	0
3	387153	129	0
3	387153	130	0
3	387153	131	0.11111111111111
3	387153	132	0
3	387153	133	0.11111111111111
3	387153	134	0
3	387153	135	0
3	387153	136	0
3	387153	137	0
3	387153	138	0
3	387153	139	0
3	387153	140	0
3	387153	141	0
3	387153	142	0
3	387153	143	0
3	387153	144	0
3	387153	145	0.2
3	387153	146	0
3	387153	147	0
3	387153	148	0
3	387153	149	0
3	387153	150	0
3	387153	151	0.28571428571429
3	387153	152	0.125
3	387153	153	0
3	387153	154	0
3	387153	155	0
3	387153	156	0
3	387153	157	0
3	387153	158	0.16666666666667
3	387153	159	0
3	387153	160	0
3	387153	161	0
3	387153	162	0
3	387153	163	0
3	387153	164	0
3	387153	165	0
3	387153	166	0
3	387153	167	0
3	387153	168	0
3	387153	169	0
3	387153	170	0
3	387153	171	0
3	387153	172	0
3	387153	173	0
3	387153	174	0
3	387153	175	0.14285714285714
3	387153	176	0
3	387153	177	0
3	387153	178	0
3	387153	179	0
3	387153	180	0
3	387153	181	0
3	387153	182	0.2
3	387153	183	0
3	387153	184	0
3	387153	185	0
3	387153	186	0.2
3	387153	187	0.14285714285714
3	387153	188	0
3	387153	189	0
3	387153	190	0
3	387153	191	0
3	387153	192	0
3	387153	193	0
3	387153	194	0
3	387153	195	0
3	387153	196	0
3	387153	197	0
3	387153	198	0
3	387153	199	0
3	387153	200	0
3	387153	201	0.16666666666667
3	387153	202	0
3	387153	203	0
3	387153	204	0
3	387153	205	0
3	387153	206	0
3	387153	207	0
3	387153	208	0
3	387153	209	0
3	387153	210	0
3	387153	211	0
3	387153	212	0
3	387153	213	0
3	387153	214	-nan
3	387153	215	0.5
3	387153	216	0
3	387153	217	0
3	387153	218	0.2
3	387153	219	0
3	387153	220	0
3	387153	221	0
3	387153	222	0
3	387153	223	0
3	387153	224	0
3	387153	225	0
3	387153	226	0.125
3	387153	227	0
3	387153	228	0
3	387153	229	0
3	387153	230	0
3	387153	231	0
3	387153	232	0
3	387153	233	0
3	387153	234	0
3	387153	235	0
3	387153	236	0
3	387153	237	0
3	387153	238	0
vector 4  abilene_network.node[4].content_store  hit_node[4]  ETV
4	387153	1	0.84137931034483
4	387153	2	0.5
4	387153	3	0.60759493670886
4	387153	4	0.58064516129032
4	387153	5	0.2962962962963
4	387153	6	0.4
4	387153	7	0.26470588235294
4	387153	8	0.325
4	387153	9	0.275
4	387153	10	0.14705882352941
4	387153	11	0.2
4	387153	12	0.18918918918919
4	387153	13	0.34883720930233
4	387153	14	0.045454545454545
4	387153	15	0.083333333333333
4	387153	16	0.11111111111111
4	387153	17	0.095238095238095
4	387153	18	0.32
4	387153	19	0.11538461538462
4	387153	20	0.22222222222222
4	387153	21	0.23333333333333
4	387153	22	0.090909090909091
4	387153	23	0.08
4	387153	24	0.3030303030303
4	387153	25	0.066666666666667
4	387153	26	0.11538461538462
4	387153	27	0.083333333333333
4	387153	28	0.22222222222222
4	387153	29	0.1
4	387153	30	0.14285714285714
4	387153	31	0.11764705882353
4	387153	32	0
4	387153	33	0.11764705882353
4	387153	34	0.18181818181818
4	387153	35	0.058823529411765
4	387153	36	0
4	387153	37	0.10526315789474
4	387153	38	0.052631578947368
4	387153	39	0.0625
4	387153	40	0.055555555555556
4	387153	41	0.0625
4	387153	42	0
4	387153	43	0.14285714285714
4	387153	44	0.055555555555556
4	387153	45	0
4	387153	46	0
4	387153	47	0.125
4	387153	48	0.071428571428571
4	387153	49	0
4	387153	50	0.083333333333333
4	387153	51	0.058823529411765
4	387153	52	0
4	387153	53	0.11764705882353
4	387153	54	0.0625
4	387153	55	0.066666666666667
4	387153	56	0.071428571428571
4	387153	57	0.055555555555556
4	387153	58	0.076923076923077
4	387153	59	0
4	387153	60	0.076923076923077
4	387153	61	0
4	387153	62	0.052631578947368
4	387153	63	0
4	387153	64	0
4	387153	65	0
4	387153	66	0
4	387153	67	0.071428571428571
4	387153	68	0.1875
4	387153	69	0.066666666666667
4	387153	70	0.083333333333333
4	387153	71	0.2
4	387153	72	0.1
4	387153	73	0.13333333333333
4	387153	74	0
4	387153	75	0
4	387153	76	0
4	387153	77	0
4	387153	78	0
4	387153	79	0.11111111111111
4	387153	80	0
4	387153	81	0
4	387153	82	0
4	387153	83	0
4	387153	84	0
4	387153	85	0
4	387153	86	0
4	387153	87	0.11111111111111
4	387153	88	0
4	387153	89	0
4	387153	90	0
4	387153	91	0
4	387153	92	0.16666666666667
4	387153	93	0
4	387153	94	0
4	387153	95	0
4	387153	96	0
4	387153	97	0
4	387153	98	0
4	387153	99	0.090909090909091
4	387153	100	0
4	387153	101	0
4	387153	102	0
4	387153	103	0
4	387153	104	0
4	387153	105	0
4	387153	106	0
4	387153	107	0
4	387153	108	0
4	387153	109	0.076923076923077
4	387153	110	0
4	387153	111	0
4	387153	112	0
4	387153	113	0
4	387153	114	0
4	387153	115	0
4	387153	116	0
4	387153	117	0
4	387153	118	0
4	387153	119	0
4	387153	120	0
4	387153	121	0.11111111111111
4	387153	122	0
4	387153	123	0
4	387153	124	0
4	387153	125	0
4	387153	126	0
4	387153	127	0
4	387153	128	0
4	387153	129	0
4	387153	130	0
4	387153	131	0.11111111111111
4	387153	132	0
4	387153	133	0
4	387153	134	0
4	387153	135	0
4	387153	136	0
4	387153	137	0
4	387153	138	0
4	387153	139	0.14285714285714
4	387153	140	0.11111111111111
4	387153	141	0
4	387153	142	0
4	387153	143	0
4	387153	144	0.083333333333333
4	387153	145	0
4	387153	146	0
4	387153	147	0
4	387153	148	0
4	387153	149	0
4	387153	150	0
4	387153	151	0
4	387153	152	0
4	387153	153	0
4	387153	154	0
4	387153	155	0.11111111111111
4	387153	156	0
4	387153	157	0
4	387153	158	0
4	387153	159	0
4	387153	160	0
4	387153	161	0
4	387153	162	0
4	387153	163	0
4	387153	164	0
4	387153	165	0
4	387153	166	0.11111111111111
4	387153	167	0
4	387153	168	0
4	387153	169	0
4	387153	170	0
4	387153	171	0
4	387153	172	0
4	387153	173	0
4	387153	174	0
4	387153	175	0
4	387153	176	0
4	387153	177	0.16666666666667
4	387153	178	0
4	387153	179	0
4	387153	180	0
4	387153	181	0
4	387153	182	0
4	387153	183	0
4	387153	184	0
4	387153	185	0
4	387153	186	0
4	387153	187	0
4	387153	188	0
4	387153	189	0
4	387153	190	0
4	387153	191	0
4	387153	192	0
4	387153	193	0
4	387153	194	0.11111111111111
4	387153	195	0
4	387153	196	0
4	387153	197	0
4	387153	198	0
4	387153	199	0
4	387153	200	0
4	387153	201	0
4	387153	202	0
4	387153	203	0
4	387153	204	0
4	387153	205	0
4	387153	206	0
4	387153	207	0
4	387153	208	0.125
4	387153	209	0
4	387153	210	0
4	387153	211	0
4	387153	212	0
4	387153	213	0
4	387153	214	-nan
4	387153	215	0
4	387153	216	0
4	387153	217	0
4	387153	218	0
4	387153	219	0
4	387153	220	0
4	387153	221	0
4	387153	222	0
4	387153	223	0
4	387153	224	0
4	387153	225	0
4	387153	226	0
4	387153	227	0
4	387153	228	0
4	387153	229	0
4	387153	230	0
4	387153	231	0
4	387153	232	0
4	387153	233	0
4	387153	234	0
4	387153	235	0
4	387153	236	0.14285714285714
4	387153	237	0
4	387153	238	0
vector 5  abilene_network.node[5].content_store  hit_node[5]  ETV
5	387153	1	0.67763157894737
5	387153	2	0.54237288135593
5	387153	3	0.36904761904762
5	387153	4	0.34090909090909
5	387153	5	0.41573033707865
5	387153	6	0.36486486486486
5	387153	7	0.33333333333333
5	387153	8	0.31818181818182
5	387153	9	0.34328358208955
5	387153	10	0.28333333333333
5	387153	11	0.32727272727273
5	387153	12	0.265625
5	387153	13	0.25
5	387153	14	0.18367346938776
5	387153	15	0.17391304347826
5	387153	16	0.22
5	387153	17	0.16666666666667
5	387153	18	0.19565217391304
5	387153	19	0.18181818181818
5	387153	20	0.12820512820513
5	387153	21	0.16666666666667
5	387153	22	0.18918918918919
5	387153	23	0.14893617021277
5	387153	24	0.22448979591837
5	387153	25	0.11764705882353
5	387153	26	0.23913043478261
5	387153	27	0.16279069767442
5	387153	28	0.21951219512195
5	387153	29	0.10810810810811
5	387153	30	0.22222222222222
5	387153	31	0.060606060606061
5	387153	32	0.17948717948718
5	387153	33	0.20588235294118
5	387153	34	0.19444444444444
5	387153	35	0.14705882352941
5	387153	36	0.19444444444444
5	387153	37	0.17142857142857
5	387153	38	0.13888888888889
5	387153	39	0.11764705882353
5	387153	40	0.09375
5	387153	41	0.0625
5	387153	42	0.16666666666667
5	387153	43	0.090909090909091
5	387153	44	0.076923076923077
5	387153	45	0.10344827586207
5	387153	46	0.1304347826087
5	387153	47	0.11538461538462
5	387153	48	0.066666666666667
5	387153	49	0.14285714285714
5	387153	50	0.09375
5	387153	51	0.16
5	387153	52	0.21212121212121
5	387153	53	0.076923076923077
5	387153	54	0.19354838709677
5	387153	55	0.17857142857143
5	387153	56	0.25925925925926
5	387153	57	0.12903225806452
5	387153	58	0.074074074074074
5	387153	59	0.19047619047619
5	387153	60	0.10526315789474
5	387153	61	0.068965517241379
5	387153	62	0.15625
5	387153	63	0.10714285714286
5	387153	64	0.11764705882353
5	387153	65	0.21428571428571
5	387153	66	0.16666666666667
5	387153	67	0.10344827586207
5	387153	68	0.14814814814815
5	387153	69	0
5	387153	70	0.04
5	387153	71	0.18518518518519
5	387153	72	0
5	387153	73	0.08
5	387153	74	0.11538461538462
5	387153	75	0
5	387153	76	0.0625
5	387153	77	0.041666666666667
5	387153	78	0
5	387153	79	0.16666666666667
5	387153	80	0.11764705882353
5	387153	81	0.125
5	387153	82	0.08695652173913
5	387153	83	0
5	387153	84	0.17647058823529
5	387153	85	0.20833333333333
5	387153	86	0.047619047619048
5	387153	87	0.055555555555556
5	387153	88	0.05
5	387153	89	0.047619047619048
5	387153	90	0.05
5	387153	91	0.125
5	387153	92	0
5	387153	93	0.0625
5	387153	94	0.095238095238095
5	387153	95	0.11764705882353
5	387153	96	0.058823529411765
5	387153	97	0
5	387153	98	0.071428571428571
5	387153	99	0
5	387153	100	0.052631578947368
5	387153	101	0
5	387153	102	0.18181818181818
5	387153	103	0.15789473684211
5	387153	104	0.28571428571429
5	387153	105	0.071428571428571
5	387153	106	0
5	387153	107	0.066666666666667
5	387153	108	0.0625
5	387153	109	0.052631578947368
5	387153	110	0.16666666666667
5	387153	111	0
5	387153	112	0
5	387153	113	0.083333333333333
5	387153	114	0
5	387153	115	0
5	387153	116	0
5	387153	117	0.05
5	387153	118	0.0625
5	387153	119	0.045454545454545
5	387153	120	0.071428571428571
5	387153	121	0.21428571428571
5	387153	122	0.0625
5	387153	123	0.058823529411765
5	387153	124	0.16666666666667
5	387153	125	0
5	387153	126	0.11764705882353
5	387153	127	0
5	387153	128	0.125
5	387153	129	0.21428571428571
5	387153	130	0
5	387153	131	0.066666666666667
5	387153	132	0
5	387153	133	0.071428571428571
5	387153	134	0
5	387153	135	0
5	387153	136	0.071428571428571
5	387153	137	0
5	387153	138	0
5	387153	139	0.13333333333333
5	387153	140	0.076923076923077
5	387153	141	0
5	387153	142	0.14285714285714
5	387153	143	0
5	387153	144	0.055555555555556
5	387153	145	0.1
5	387153	146	0
5	387153	147	0
5	387153	148	0.0625
5	387153	149	0
5	387153	150	0.058823529411765
5	387153	151	0.090909090909091
5	387153	152	0
5	387153	153	0
5	387153	154	0
5	387153	155	0.071428571428571
5	387153	156	0
5	387153	157	0.076923076923077
5	387153	158	0.11111111111111
5	387153	159	0.090909090909091
5	387153	160	0.083333333333333
5	387153	161	0.14285714285714
5	387153	162	0
5	387153	163	0.083333333333333
5	387153	164	0
5	387153	165	0
5	387153	166	0
5	387153	167	0
5	387153	168	0.076923076923077
5	387153	169	0
5	387153	170	0
5	387153	171	0
5	387153	172	0.066666666666667
5	387153	173	0
5	387153	174	0
5	387153	175	0
5	387153	176	0
5	387153	177	0
5	387153	178	0.076923076923077
5	387153	179	0
5	387153	180	0
5	387153	181	0
5	387153	182	0
5	387153	183	0.13333333333333
5	387153	184	0
5	387153	185	0
5	387153	186	0
5	387153	187	0
5	387153	188	0
5	387153	189	0
5	387153	190	0.083333333333333
5	387153	191	0.11111111111111
5	387153	192	0.083333333333333
5	387153	193	0.090909090909091
5	387153	194	0.14285714285714
5	387153	195	0.2
5	387153	196	0.11111111111111
5	387153	197	0
5	387153	198	0
5	387153	199	0
5	387153	200	0
5	387153	201	0.071428571428571
5	387153	202	0.083333333333333
5	387153	203	0
5	387153	204	0.090909090909091
5	387153	205	0.083333333333333
5	387153	206	0
5	387153	207	0.28571428571429
5	387153	208	0
5	387153	209	0
5	387153	210	0
5	387153	211	0
5	387153	212	0
5	387153	213	0
5	387153	214	0
5	387153	215	0.11111111111111
5	387153	216	0
5	387153	217	0
5	387153	218	0.071428571428571
5	387153	219	0
5	387153	220	0
5	387153	221	0
5	387153	222	0
5	387153	223	0
5	387153	224	0
5	387153	225	0
5	387153	226	0.0625
5	387153	227	0
5	387153	228	0.1
5	387153	229	0.083333333333333
5	387153	230	0
5	387153	231	0.11111111111111
5	387153	232	0
5	387153	233	0
5	387153	234	0
5	387153	235	0
5	387153	236	0.125
5	387153	237	0
5	387153	238	0
vector 6  abilene_network.node[6].content_store  hit_node[6]  ETV
6	387153	1	0.90076335877863
6	387153	2	0.76315789473684
6	387153	3	0.64814814814815
6	387153	4	0.58
6	387153	5	0.32352941176471
6	387153	6	0.59183673469388
6	387153	7	0.45
6	387153	8	0.42105263157895
6	387153	9	0.2962962962963
6	387153	10	0.38235294117647
6	387153	11	0.39130434782609
6	387153	12	0.16666666666667
6	387153	13	0.17391304347826
6	387153	14	0.19047619047619
6	387153	15	0.23076923076923
6	387153	16	0.2962962962963
6	387153	17	0.18181818181818
6	387153	18	0.125
6	387153	19	0.19047619047619
6	387153	20	0.25
6	387153	21	0.17647058823529
6	387153	22	0.14285714285714
6	387153	23	0.125
6	387153	24	0.1
6	387153	25	0.23809523809524
6	387153	26	0.055555555555556
6	387153	27	0.0625
6	387153	28	0.11111111111111
6	387153	29	0.3
6	387153	30	0.14285714285714
6	387153	31	0.125
6	387153	32	0
6	387153	33	0.071428571428571
6	387153	34	0.21428571428571
6	387153	35	0.125
6	387153	36	0
6	387153	37	0
6	387153	38	0.076923076923077
6	387153	39	0.071428571428571
6	387153	40	0.11111111111111
6	387153	41	0.066666666666667
6	387153	42	0
6	387153	43	0.17647058823529
6	387153	44	0.1
6	387153	45	0.13333333333333
6	387153	46	0.23076923076923
6	387153	47	0.25
6	387153	48	0.076923076923077
6	387153	49	0
6	387153	50	0.27272727272727
6	387153	51	0.125
6	387153	52	0.14285714285714
6	387153	53	0
6	387153	54	0.076923076923077
6	387153	55	0
6	387153	56	0.11111111111111
6	387153	57	0
6	387153	58	0
6	387153	59	0
6	387153	60	0
6	387153	61	0
6	387153	62	0
6	387153	63	0
6	387153	64	0.18181818181818
6	387153	65	0
6	387153	66	0.15384615384615